# Probe 0 (0 0.005 0)
# Probe 1 (-0.01 -0.005 0)
# Probe 2 (0.01 -0.005 0)
# Probe 3 (0 -0.005 0.01)
# Probe 4 (0 -0.005 -0.01)
# Probe 5 (-0.01 0.005 0)
# Probe 6 (0.01 0.005 0)
# Probe 7 (0 0.005 0.01)
# Probe 8 (0 0.005 -0.01)
# Probe 9 (-0.005 0.005 0)
# Probe 10 (0.005 0.005 0)
# Probe 11 (0 0.005 0.005)
# Probe 12 (0 0.005 -0.005)
# Probe 13 (-0.01 0.015 0)
# Probe 14 (0.01 0.015 0)
# Probe 15 (0 0.015 0.01)
# Probe 16 (0 0.015 -0.01)
# Probe 17 (0 0.015 0)
#         Probe               0               1               2               3               4               5               6               7               8               9              10              11              12              13              14              15              16              17
#          Time
    0.058829366       100101.81       100143.23       100122.12       100093.29       100126.09       100126.97       100098.14       100126.12       100134.29       100128.76       100105.98       100126.46       100123.29       100127.41       100098.22       100130.86       100128.14       100122.14
    0.058834252       100101.83       100143.05        100122.6       100093.13       100125.91       100126.94       100098.45          100126       100134.33       100128.67       100106.09       100126.47        100123.3       100127.41       100098.18       100130.84       100128.08       100122.18
    0.058839118       100101.86       100142.88       100123.06       100093.07       100125.79        100126.9       100098.67       100125.87       100134.36       100128.55       100106.18       100126.47       100123.31        100127.4        100098.1        100130.8       100128.04       100122.19
    0.058843951       100101.88       100142.71        100123.5       100093.08        100125.7       100126.84       100098.94       100125.73       100134.38       100128.45       100106.25       100126.47       100123.31       100127.39       100098.05       100130.77       100127.95       100122.22
    0.058848741       100101.93       100142.55       100123.98       100093.26       100125.67       100126.84        100099.2       100125.55        100134.4       100128.37       100106.37       100126.49       100123.34        100127.4       100097.99       100130.76       100127.92       100122.27
    0.058853476       100101.97       100142.38       100124.44        100093.5       100125.65        100126.8       100099.49       100125.37       100134.42        100128.3       100106.45        100126.5       100123.36        100127.4       100097.97       100130.74       100127.81        100122.3
    0.058858151       100102.01       100142.21       100124.89       100093.79       100125.62       100126.77       100099.71       100125.18       100134.42       100128.23       100106.52        100126.5       100123.37       100127.39       100097.94       100130.71       100127.76       100122.32
    0.058862763       100102.04       100142.06       100125.37       100094.17       100125.59       100126.75       100099.97       100124.99       100134.41       100128.21       100106.59        100126.5       100123.39       100127.37       100097.91       100130.68       100127.66       100122.35
    0.058867317       100102.09        100141.9       100125.85       100094.59       100125.55       100126.75       100100.18        100124.8        100134.4       100128.15       100106.68       100126.51       100123.41       100127.37       100097.94       100130.66       100127.54       100122.39
    0.058871819       100102.15       100141.76       100126.34       100095.11       100125.49       100126.75       100100.44       100124.63        100134.4       100128.09       100106.77       100126.53       100123.44       100127.37       100097.95       100130.65       100127.44       100122.44
    0.058876282       100102.22       100141.61       100126.82       100095.62       100125.44       100126.75       100100.67       100124.43        100134.4       100128.11       100106.86       100126.55       100123.48       100127.38       100097.98       100130.64       100127.35       100122.49
    0.058880719        100102.3       100141.47       100127.33       100096.04       100125.42        100126.8        100100.9       100124.23        100134.4       100128.11       100106.95       100126.58       100123.53       100127.39       100098.03       100130.64       100127.27       100122.55
    0.058885142       100102.37       100141.31       100127.83       100096.31       100125.42        100126.8       100101.14       100124.02       100134.39       100128.13       100107.02       100126.59       100123.56       100127.38       100098.05       100130.63       100127.15        100122.6
    0.058889568       100102.45       100141.15       100128.35       100096.34        100125.5       100126.82       100101.36       100123.79       100134.38       100128.18        100107.1        100126.6        100123.6       100127.38       100098.12       100130.63       100127.04       100122.67
    0.058894016       100102.51       100140.96       100128.89       100096.07       100125.64       100126.84       100101.54       100123.55       100134.34        100128.2       100107.16       100126.59       100123.63       100127.37       100098.11        100130.6       100126.97       100122.71
    0.058898504        100102.6       100140.79       100129.48       100095.48       100125.88        100126.9       100101.79        100123.3       100134.31        100128.3       100107.26       100126.61       100123.67       100127.37       100098.18       100130.59       100126.87       100122.77
    0.058903051       100102.69        100140.6       100130.08       100094.63       100126.23       100126.93       100101.98       100123.07       100134.29       100128.27       100107.33       100126.62       100123.71       100127.37       100098.29       100130.59        100126.8       100122.84
    0.058907676       100102.82       100140.45       100130.73       100093.56       100126.68       100127.01       100102.22       100122.86        100134.3       100128.34       100107.43       100126.67       100123.78       100127.38       100098.37        100130.6       100126.77       100122.93
    0.058912315        100102.9       100140.27        100131.3       100092.43       100127.14       100127.05       100102.46       100122.61       100134.27       100128.31       100107.54       100126.69       100123.81       100127.39       100098.43       100130.61        100126.7       100123.01
    0.058916931       100102.92       100140.04       100131.75       100091.27       100127.53       100127.07       100102.59       100122.28       100134.17       100128.34       100107.57       100126.64       100123.78       100127.31       100098.43       100130.54       100126.59          100123
    0.058921537       100102.99       100139.85       100132.12       100090.13       100127.93       100127.14       100102.79       100122.02       100134.11       100128.34       100107.62       100126.63       100123.78       100127.27       100098.51       100130.51       100126.54       100123.04
    0.058926146       100103.08       100139.69       100132.39       100089.01       100128.28       100127.21       100102.94       100121.77       100134.06       100128.36        100107.7       100126.65        100123.8       100127.25        100098.6       100130.51       100126.54        100123.1
    0.058930773       100103.17       100139.53       100132.52       100087.91       100128.54       100127.27       100103.14        100121.5          100134        100128.4       100107.77       100126.64       100123.81       100127.22       100098.67       100130.49       100126.54       100123.14
    0.058935431       100103.27        100139.4       100132.56       100086.81       100128.72       100127.35       100103.34       100121.24       100133.95       100128.39       100107.86       100126.64       100123.82        100127.2       100098.74       100130.49       100126.55        100123.2
    0.058940134       100103.39       100139.28       100132.48       100085.76       100128.82       100127.44       100103.52       100121.01        100133.9        100128.4       100107.95       100126.66       100123.85       100127.18       100098.86        100130.5       100126.67       100123.25
    0.058944897       100103.51       100139.17       100132.31       100084.74       100128.85       100127.53       100103.72       100120.76       100133.85       100128.43       100108.04       100126.66       100123.87       100127.16       100098.93        100130.5       100126.74        100123.3
    0.058949734       100103.63       100139.07       100132.08       100083.57       100128.85       100127.64       100103.92       100120.54       100133.78        100128.4       100108.14       100126.67       100123.88       100127.13       100099.16        100130.5       100126.84       100123.34
    0.058954661       100103.76       100138.98        100131.8       100082.21       100128.85       100127.88       100104.11       100120.34       100133.73       100128.54       100108.25       100126.68        100123.9       100127.11       100099.25        100130.5       100126.98       100123.38
    0.058959696       100103.89       100138.89       100131.51       100080.32       100128.85       100127.93       100104.31       100120.13       100133.66       100128.52       100108.35       100126.69        100123.9       100127.09        100099.4        100130.5       100127.13        100123.4
    0.058964832       100104.09       100138.88       100131.25       100078.02       100128.93       100128.11       100104.57       100120.02       100133.66       100128.66       100108.54       100126.78       100123.97       100127.14       100099.53       100130.57       100127.38        100123.5
    0.058969977       100104.14       100138.74       100130.89       100074.86       100128.87       100128.16       100104.72       100119.74       100133.55       100128.54       100108.58       100126.72        100123.9       100127.04       100099.66       100130.51        100127.5       100123.43
    0.058975134       100104.21        100138.6       100130.59          100071        100128.8       100128.28       100104.85       100119.48       100133.41       100128.48       100108.65       100126.68       100123.84       100126.96       100099.77       100130.46       100127.69       100123.38
    0.058980316       100104.32        100138.5       100130.35       100066.62       100128.78       100128.43       100105.03        100119.3       100133.35       100128.47       100108.75       100126.67       100123.81       100126.91        100099.9       100130.43        100127.9       100123.33
     0.05898554       100104.43       100138.39       100130.13        100061.5       100128.73       100128.47       100105.22       100119.14       100133.23       100128.46       100108.83       100126.65       100123.77       100126.86       100100.06       100130.41       100128.12       100123.28
     0.05899082       100104.56       100138.29          100130       100056.53        100128.7       100128.62       100105.38          100119       100133.18       100128.46       100108.95       100126.65       100123.75       100126.83       100100.23        100130.4       100128.36       100123.21
    0.058996175       100104.68       100138.18       100129.92       100051.73       100128.67       100128.78       100105.57       100118.86       100133.11       100128.45       100109.06       100126.64       100123.72       100126.78       100100.36       100130.37       100128.59       100123.12
    0.059001608        100104.9       100138.14       100129.92       100047.98       100128.72       100128.95       100105.82       100118.86       100133.11       100128.45       100109.27       100126.72       100123.78       100126.82       100100.62       100130.44       100128.98       100123.12
    0.059007021       100104.96       100137.95        100129.8       100046.17       100128.65       100129.04       100105.96       100118.71       100132.97       100128.41       100109.32       100126.66       100123.68       100126.72       100100.74       100130.36       100129.16       100122.95
    0.059012405       100105.04       100137.78       100129.74       100045.92       100128.64       100129.12        100106.1       100118.59       100132.86       100128.37       100109.41       100126.62       100123.58       100126.64       100100.84       100130.29       100129.36       100122.79
    0.059017771       100105.16       100137.61       100129.71       100048.05       100128.69       100129.21       100106.25       100118.52       100132.77       100128.31       100109.51       100126.58       100123.59       100126.58       100100.98       100130.23       100129.59       100122.62
    0.059023129       100105.28       100137.46       100129.66       100051.71       100128.83       100129.29        100106.4       100118.48       100132.68       100128.28       100109.62       100126.58       100123.55       100126.52       100101.17        100130.2        100129.8       100122.47
    0.059028492       100105.42       100137.31       100129.62       100056.34       100129.05       100129.34       100106.59       100118.48       100132.57       100128.22       100109.75       100126.57       100123.48       100126.46       100101.35       100130.16       100130.04        100122.3
    0.059033873       100105.56       100137.15       100129.56       100061.27       100129.34       100129.37       100106.75       100118.51       100132.47       100128.18       100109.88       100126.55       100123.49       100126.41       100101.52       100130.12       100130.24       100122.14
    0.059039286       100105.72       100137.03       100129.51       100066.29        100129.7        100129.4       100106.93       100118.59       100132.33       100128.15       100110.01       100126.54       100123.49       100126.37       100101.68       100130.09       100130.45       100121.98
    0.059044746        100105.9       100136.92       100129.44       100070.87       100130.12        100129.4       100107.08       100118.69       100132.22       100128.11       100110.15       100126.55       100123.47       100126.34       100101.91       100130.06       100130.67       100121.82
    0.059050269       100106.06        100136.8       100129.34       100074.81       100130.52       100129.33       100107.26       100118.76       100132.11       100128.05       100110.29       100126.52       100123.47       100126.28       100101.99       100130.02       100130.87       100121.65
    0.059055873       100106.23       100136.69       100129.22       100077.98       100130.89       100129.24        100107.4       100118.85       100131.97       100127.95       100110.41       100126.49       100123.44       100126.22       100102.17       100129.98       100131.03       100121.47
    0.059061581       100106.37       100136.55       100129.06       100080.33        100131.2       100129.07       100107.48       100118.93       100131.76       100127.83       100110.49       100126.43        100123.4       100126.13       100102.28       100129.91       100131.17       100121.27
    0.059067419       100106.54       100136.44       100128.93       100081.98       100131.49        100128.9       100107.58       100119.03        100131.6       100127.69       100110.61       100126.39       100123.36       100126.07       100102.46       100129.86       100131.36        100121.1
    0.059073416       100106.72       100136.32       100128.78       100083.02       100131.74       100128.65       100107.67       100119.17       100131.39       100127.68       100110.72       100126.33       100123.33       100125.98       100102.59       100129.79       100131.47       100120.92
    0.059079576       100107.02       100136.32       100128.74       100083.69       100132.08       100128.48       100107.93       100119.42       100131.32       100127.57       100110.95       100126.43       100123.42       100126.01       100102.88       100129.86       100131.75       100120.87
     0.05908576       100107.09        100136.1       100128.49       100083.86       100132.14       100128.03       100107.94       100119.47          100131       100127.25       100110.97       100126.24       100123.28       100125.84       100102.86       100129.72       100131.84       100120.61
    0.059091965       100107.23       100135.92       100128.32       100084.02       100132.11       100127.58       100107.99       100119.62       100130.73       100127.01       100111.02       100126.11        100123.2       100125.72          100103       100129.63       100131.89       100120.42
    0.059098205       100107.37        100135.7       100128.16       100084.19       100131.86       100127.07       100108.06       100119.74       100130.44        100126.7       100111.07       100125.96       100123.13       100125.59       100103.09       100129.53       100131.97       100120.24
    0.059104314       100107.59        100135.5       100128.13        100084.6       100131.45       100126.61       100108.24       100119.96       100130.24        100126.6       100111.23        100125.9       100123.16       100125.55       100103.29       100129.55       100132.16       100120.16
    0.059110196       100107.65       100135.05       100127.94       100085.01       100130.68       100125.98       100108.26       100120.03       100129.89       100126.22       100111.23       100125.68       100123.02       100125.35       100103.31        100129.4       100132.18       100119.96
    0.059115914       100107.78       100134.64       100127.85       100085.75       100129.92        100125.4       100108.31       100120.13       100129.58       100125.87       100111.27       100125.52       100122.95       100125.21       100103.38        100129.3       100132.27       100119.79
    0.059121482       100107.96        100134.3       100127.82        100086.8       100129.27       100124.87       100108.45       100120.33       100129.36       100125.64       100111.37       100125.39       100122.94       100125.12       100103.48       100129.29       100132.29       100119.71
    0.059126923       100108.12       100134.04       100127.77       100087.87       100128.73       100124.36       100108.55        100120.5       100129.09       100125.39       100111.44       100125.26       100122.93       100125.03       100103.55       100129.25       100132.39       100119.64
     0.05913229       100108.32       100133.88       100127.75       100088.88       100128.36       100123.89       100108.69       100120.72       100128.82       100125.11       100111.52       100125.14       100122.93       100124.96       100103.68       100129.25       100132.47       100119.58
    0.059137624       100108.51       100133.76       100127.71       100089.64       100128.12       100123.43        100108.8       100120.93        100128.6       100124.85       100111.62       100125.03       100122.94        100124.9       100103.79       100129.26       100132.58       100119.55
    0.059142962        100108.7       100133.69       100127.66       100090.17       100128.05          100123       100108.91       100121.17       100128.33       100124.63       100111.73       100124.89       100122.95       100124.85       100103.88       100129.26        100132.7       100119.53
    0.059148334       100108.86       100133.59       100127.56       100090.49       100128.14       100122.57          100109       100121.37       100128.02       100124.35       100111.89       100124.75       100122.94       100124.76       100103.97       100129.24       100132.77       100119.48
    0.059153773       100109.04       100133.47       100127.45       100090.64       100128.41       100122.15       100109.08        100121.6       100127.73       100124.12       100111.87       100124.58       100122.93        100124.7       100104.08       100129.25       100132.87       100119.48
    0.059159313       100109.21       100133.29       100127.34       100090.69       100128.84       100121.74       100109.17       100121.81       100127.43       100123.95       100111.98       100124.39       100122.93       100124.64       100104.15       100129.24       100132.95       100119.46
    0.059164986       100109.36       100133.05       100127.19       100090.55       100129.36       100121.33       100109.25       100122.08       100127.12       100123.75       100112.15       100124.14       100122.91       100124.55       100104.25       100129.23          100133       100119.45
    0.059170825       100109.51       100132.77       100127.05       100090.27       100129.93       100120.95        100109.4       100122.33       100126.78       100123.51       100112.19       100123.98       100122.88       100124.46       100104.33       100129.21       100133.05       100119.43
    0.059176863       100109.66       100132.43       100126.88       100089.86       100130.48        100120.6       100109.58       100122.59       100126.43       100123.31       100112.26       100123.87       100122.86       100124.37       100104.43       100129.18       100133.26       100119.43
    0.059183131       100109.77       100132.01       100126.66       100089.39       100130.92        100120.3       100109.79       100122.78       100126.04       100123.05       100112.31       100123.58        100122.8       100124.26       100104.53       100129.14       100133.15       100119.41
    0.059189651       100109.99       100131.64       100126.45       100088.95       100131.33       100120.14       100110.16       100123.26       100125.73       100122.97       100112.49       100123.39       100122.83       100124.22        100104.7       100129.19       100133.32        100119.5
    0.059196322       100110.07        100131.1       100125.97        100088.3       100131.45       100119.95       100110.46       100123.48       100125.31       100122.69       100112.53       100123.04       100122.74       100124.07       100104.76       100129.11       100133.38       100119.47
    0.059203108       100110.15       100130.52       100125.29       100087.44       100131.43       100119.86       100110.85       100123.73        100124.8       100122.37       100112.59       100122.66       100122.63        100123.9       100104.83       100129.03       100133.36       100119.46
    0.059210013       100110.33          100130       100124.46       100086.31        100131.4          100120       100111.41          100124       100124.34       100122.31       100112.71        100122.4       100122.61       100123.82          100105       100129.04       100133.53       100119.55
    0.059216937       100110.42       100129.34       100123.31       100084.73       100131.22       100120.18       100111.91       100124.29        100123.9       100122.08       100112.76       100122.06        100122.5       100123.66       100105.09       100128.96       100133.62       100119.57
    0.059223854       100110.51       100128.66       100122.01       100083.03       100131.01       100120.48       100112.44       100124.56       100123.41       100121.92       100112.83       100121.69       100122.38        100123.5        100105.2       100128.87       100133.69       100119.59
    0.059230776       100110.63       100127.98       100120.68       100081.47       100130.82       100120.98       100113.01       100124.81       100122.87        100121.8       100112.91       100121.37       100122.29       100123.37       100105.32       100128.84       100133.67       100119.65
    0.059237716       100110.77       100127.29       100119.32       100080.37       100130.66       100121.58       100113.59       100125.11       100122.42       100121.73       100113.01       100121.08       100122.22       100123.25       100105.47       100128.79       100133.77       100119.72
    0.059244689       100110.92        100126.6       100118.01       100080.03       100130.54       100122.33       100114.18       100125.42       100121.97       100121.75       100113.12       100120.74       100122.15       100123.14       100105.64       100128.76       100133.88        100119.8
    0.059251707       100111.08        100125.9       100116.77       100080.44       100130.48       100123.17       100114.78        100125.7       100121.51       100121.79       100113.25       100120.45       100122.08       100123.05       100105.87       100128.74       100133.98        100119.9
    0.059258781       100111.24       100125.21       100115.62       100081.45       100130.45       100124.05       100115.31       100125.95       100121.04       100121.86       100113.36       100120.13          100122       100122.94       100106.05        100128.7       100134.08       100119.97
    0.059265922        100111.4       100124.55       100114.52        100082.8        100130.5       100124.95       100115.81       100126.25       100120.54       100121.99       100113.47       100119.81       100121.92       100122.83       100106.27       100128.68       100134.19       100120.04
    0.059273135       100111.57       100123.94       100113.46       100084.23       100130.61       100125.83       100116.28       100126.51       100120.05       100122.12        100113.6        100119.5       100121.85       100122.75       100106.51       100128.66       100134.26       100120.11
    0.059280425       100111.76       100123.38       100112.46       100085.63       100130.79       100126.73        100116.7       100126.76       100119.58       100122.32       100113.72       100119.21       100121.78       100122.66       100106.77       100128.63       100134.39       100120.17
    0.059287791       100111.97       100122.93       100111.62       100086.94       100131.06       100127.56       100117.12       100127.03       100119.09       100122.54       100113.87       100118.93       100121.74       100122.58       100107.03        100128.6       100134.55       100120.23
    0.059295221       100112.27       100122.65       100111.08        100088.3       100131.44       100128.46       100117.55       100127.41       100118.72       100122.86       100114.07       100118.71       100121.78       100122.58       100107.41       100128.66       100134.79       100120.36
    0.059302569       100112.36       100122.25       100110.68       100089.12       100131.62       100129.08       100117.74       100127.53       100118.01       100122.96       100114.08       100118.32       100121.61       100122.36       100107.56        100128.5       100134.79       100120.25
    0.059309896       100112.51       100122.02        100110.6       100089.62       100131.86       100129.76       100117.98       100127.67       100117.44       100123.21       100114.15       100118.01       100121.51       100122.22       100107.78       100128.41       100134.77        100120.2
    0.059317309       100112.72       100121.95       100110.94       100089.61       100132.15       100130.46       100118.19       100127.81       100116.89       100123.51       100114.27       100117.77       100121.48       100122.12       100108.05       100128.34       100134.91       100120.19
    0.059324893       100113.01       100122.07       100111.73        100088.9       100132.55       100131.23       100118.45       100127.98       100116.49       100123.87       100114.43       100117.58       100121.51        100122.1       100108.41       100128.36       100135.06       100120.24
    0.059332451       100113.36       100122.37        100112.9       100087.42       100133.03       100131.94       100118.79       100128.16       100115.97       100124.25       100114.67       100117.48        100121.6       100122.11       100108.82       100128.43       100135.32       100120.32
    0.059339819       100113.41       100122.53       100114.13       100085.05       100133.28       100132.27       100118.83       100127.97       100115.26       100124.33        100114.6       100117.06       100121.42       100121.85       100108.94       100128.18       100135.24       100120.11
     0.05934713       100113.58       100122.93       100115.74       100082.59       100133.72        100132.6       100118.98       100127.86       100114.69       100124.45       100114.67        100116.8       100121.37       100121.72        100109.2       100128.09       100135.31       100120.02
    0.059354548       100113.74       100123.45       100117.55       100080.23       100134.22       100132.78       100119.12       100127.66       100114.07       100124.62        100114.7       100116.54        100121.3       100121.58       100109.45       100127.97       100135.36       100119.92
      0.0593622       100114.17       100124.34       100119.79       100078.41       100135.05        100133.1       100119.55       100127.69       100113.68       100124.99       100114.98       100116.56       100121.49        100121.7       100109.99       100128.09       100135.67       100120.07
    0.059369895       100114.35       100125.09       100121.82       100076.73        100135.7       100133.11       100119.78       100127.45       100113.08       100125.06       100115.03        100116.3       100121.45       100121.56       100110.26          100128       100135.68       100119.97
    0.059377628       100114.52       100125.92       100123.92       100075.32       100136.39       100133.02       100120.04       100127.28       100112.45       100125.15       100115.07       100116.05        100121.4       100121.44       100110.56       100127.91       100135.71       100119.86