# Probe 0 (0 0.005 0)
# Probe 1 (-0.01 -0.005 0)
# Probe 2 (0.01 -0.005 0)
# Probe 3 (0 -0.005 0.01)
# Probe 4 (0 -0.005 -0.01)
# Probe 5 (-0.01 0.005 0)
# Probe 6 (0.01 0.005 0)
# Probe 7 (0 0.005 0.01)
# Probe 8 (0 0.005 -0.01)
# Probe 9 (-0.005 0.005 0)
# Probe 10 (0.005 0.005 0)
# Probe 11 (0 0.005 0.005)
# Probe 12 (0 0.005 -0.005)
# Probe 13 (-0.01 0.015 0)
# Probe 14 (0.01 0.015 0)
# Probe 15 (0 0.015 0.01)
# Probe 16 (0 0.015 -0.01)
# Probe 17 (0 0.015 0)
#         Probe               0               1               2               3               4               5               6               7               8               9              10              11              12              13              14              15              16              17
#          Time
  6.3821374e-06       100144.67       100076.63       100095.24       100160.45       100161.38       100135.71       100152.33       100115.85       100125.83       100128.17       100159.11       100133.96       100140.76       100180.45       100154.02        100143.2        100154.4        100149.3
  1.2801499e-05       100142.13       100080.08       100088.94       100157.49       100158.32       100133.13       100147.44        100113.9       100123.67       100125.52       100156.69       100131.62       100138.49       100178.96       100151.66       100140.98       100152.21       100146.89
  1.9217828e-05       100144.88       100088.81       100087.66       100159.84       100160.55        100135.8       100148.09       100117.25       100126.74       100128.19       100159.43       100134.56        100141.4       100182.62       100154.53       100143.93       100155.22       100149.73
  2.5634389e-05       100147.53       100097.06          100086       100162.14       100162.66       100138.27       100148.82        100120.5       100129.71       100130.74       100162.05       100137.38       100144.15       100185.98       100157.25       100146.73       100158.12       100152.45
    3.20554e-05       100149.73       100104.17       100083.67       100164.06       100164.24       100140.27       100149.28       100123.35       100132.27       100132.86       100164.21       100139.76       100146.44       100188.92       100159.49       100149.07        100160.5        100154.7
  3.8485817e-05       100151.53        100108.8       100080.79       100165.67       100165.35       100141.78       100149.38       100125.82       100134.38       100134.55       100165.93       100141.72       100148.33       100191.35       100161.27          100151       100162.47       100156.54
  4.4928804e-05       100153.02       100111.83       100077.48       100167.09       100166.08       100142.98       100149.09          100128       100136.22       100135.95       100167.36       100143.39       100149.91       100193.46       100162.73       100152.56       100164.11       100158.08
   5.138667e-05       100154.24       100113.49       100073.72       100168.37       100166.47       100143.85       100148.49       100129.94        100137.8       100137.07       100168.51       100144.78       100151.18       100195.26       100163.88       100153.85       100165.46       100159.34
  5.7865338e-05       100155.31       100113.99       100069.55       100169.63       100166.68       100144.59       100147.72       100131.73       100139.26       100138.06        100169.5       100146.03       100152.33       100196.77       100164.85       100155.03       100166.65       100160.46
  6.4371108e-05       100156.24       100114.55        100064.9       100170.81       100166.69       100145.14       100146.79       100133.39       100140.52       100138.88       100170.34       100147.13       100153.32       100198.19       100165.64       100156.01       100167.65       100161.42
   7.091043e-05       100157.04       100115.16       100059.82       100171.88       100166.56       100145.56       100145.72       100134.97       100141.65       100139.57       100171.05       100148.11       100154.16       100199.32       100166.28       100156.89       100168.53       100162.26
  7.7489682e-05       100157.75        100115.5       100054.45       100172.85       100166.32        100145.9       100144.63       100136.43       100142.72       100140.16       100171.66       100148.99       100154.92        100200.5       100166.83       100157.67       100169.33          100163
  8.4114901e-05       100158.41       100115.28          100049        100173.7       100166.02       100146.18       100143.51       100137.87       100143.76        100140.7        100172.2       100149.82       100155.63       100201.43       100167.32       100158.41       100169.98       100163.69
  9.0791474e-05       100158.97       100114.13       100043.57       100174.42       100165.57       100146.43       100142.49       100139.22        100144.7       100141.12       100172.67       100150.57       100156.25       100202.13       100167.73       100159.09       100170.53        100164.3
  9.7523966e-05       100159.49       100112.18       100038.33       100175.02       100165.08       100146.65       100141.65       100140.52       100145.59        100141.5       100173.06       100151.26        100156.8       100202.93       100168.08       100159.65       100170.97       100164.84
  0.00010431593       100159.94       100109.84       100033.38       100175.52        100164.5       100146.83       100141.19       100141.78       100146.41       100141.79        100173.4       100151.89       100157.29       100203.41       100168.41       100160.19       100171.36       100165.33
  0.00011116987       100160.35       100107.65       100029.13          100176       100163.86       100147.01       100141.17       100142.99       100147.18       100142.04       100173.67       100152.48       100157.75       100203.72       100168.72       100160.72       100171.64       100165.77
   0.0001180873       100160.69       100105.83       100025.52       100176.41       100163.12       100147.16       100141.66       100144.14       100147.91       100142.21       100173.86          100153       100158.12       100204.33       100168.99       100161.13       100171.85       100166.14
  0.00012506887          100161       100104.36       100023.16       100176.85       100162.41       100147.22       100142.66       100145.24       100148.62       100142.32       100174.02       100153.48       100158.48       100204.58       100169.24        100161.5       100171.96       100166.47
  0.00013211472       100161.26       100103.09       100021.81       100177.28       100161.66       100147.23        100144.2       100146.27        100149.3       100142.37       100174.12        100153.9       100158.74       100204.74       100169.47       100161.83       100172.03       100166.75
  0.00013922472       100161.48       100101.86       100021.64       100177.73       100160.94       100147.21       100146.19       100147.31       100149.96       100142.35       100174.17       100154.29       100158.99       100204.77       100169.69       100162.13       100172.04       100166.98
  0.00014639432       100161.71       100100.76       100022.88       100178.19       100160.15       100147.16       100148.53       100148.32       100150.67       100142.34       100174.21       100154.68       100159.24       100204.84       100169.96       100162.45       100171.97       100167.23
  0.00015358429       100161.86       100099.56       100025.04       100178.56       100159.21       100147.17       100151.04       100149.26       100151.31       100142.24       100174.18       100154.99       100159.42       100204.85       100170.15       100162.63       100171.82       100167.38
  0.00016078826       100161.97       100098.47       100028.07       100178.91       100157.96       100147.23        100153.6       100150.15       100151.95       100142.09       100174.11       100155.26       100159.56       100204.54       100170.38       100162.81       100171.56        100167.5
  0.00016801054       100162.07       100097.42       100031.92       100179.21       100156.38       100147.39       100156.29       100151.01       100152.61       100141.93          100174       100155.51       100159.66       100204.22       100170.61       100162.92       100171.29        100167.6
  0.00017525607       100162.17        100096.5       100036.09       100179.53       100154.49       100147.74        100158.8       100151.87       100153.29       100141.74       100173.89       100155.76       100159.77       100204.05       100170.86       100163.03       100170.97       100167.69
  0.00018253014       100162.28       100095.85       100040.59       100179.85        100152.4       100148.23       100161.22       100152.71          100154       100141.56       100173.78       100156.01       100159.88        100203.7       100171.13       100163.18       100170.65       100167.78
  0.00018983813       100162.34       100095.25       100045.12       100180.15       100150.09       100148.82       100163.46       100153.51       100154.73       100141.34       100173.62       100156.22       100159.96       100203.33       100171.39       100163.26       100170.26       100167.84
  0.00019718535        100162.4       100094.69       100049.72       100180.45       100147.55       100149.41       100165.66        100154.3       100155.45       100141.12       100173.46       100156.42       100160.02       100202.97       100171.65       100163.31       100169.77       100167.89
  0.00020457693       100162.43       100094.27       100054.47       100180.76       100144.75       100149.92       100167.65       100155.03       100156.16       100140.85       100173.28       100156.59       100160.08       100202.49       100171.93       100163.37       100169.33       100167.92
  0.00021201784       100162.46       100093.72       100059.57       100181.08       100141.82       100150.26       100169.54       100155.77       100156.87       100140.63       100173.07       100156.77       100160.11       100202.08       100172.19       100163.38       100168.82       100167.95
  0.00021951284       100162.48       100093.11       100065.07       100181.41       100138.83        100150.4        100171.2       100156.47        100157.6       100140.37       100172.87       100156.93       100160.14       100201.61       100172.47       100163.37       100168.23       100167.96
  0.00022706654       100162.49       100092.46       100070.94       100181.74       100135.79       100150.56       100172.67       100157.16       100158.32       100140.24       100172.65        100157.1       100160.17       100201.04       100172.77       100163.34       100167.59       100167.97
  0.00023468342       100162.51       100091.88       100077.09        100182.1       100132.61       100150.94       100173.76       100157.85       100159.09       100140.09       100172.46       100157.28       100160.23       100200.51       100173.09       100163.34       100166.96          100168
   0.0002423679       100162.51       100091.42       100083.45       100182.47       100129.26       100151.97       100174.34       100158.51       100159.81        100139.9       100172.27       100157.44       100160.27       100199.89       100173.43       100163.31       100166.29       100168.02
  0.00024995453       100162.61       100091.06       100089.87       100182.98       100125.89       100153.74        100174.5       100159.23       100160.63       100139.85       100172.17       100157.71       100160.42       100199.32       100173.85       100163.34       100165.68       100168.13
  0.00025734158       100162.49       100090.47       100095.88       100183.34       100122.32       100155.73       100174.03       100159.72       100161.17       100139.59       100171.87       100157.76       100160.35       100198.56       100174.06       100163.16       100164.93       100168.04
  0.00026458348       100162.44       100089.78       100101.74       100183.84       100118.87       100157.66       100173.31       100160.26       100161.79       100139.48       100171.66        100157.9       100160.36       100197.85       100174.36       100163.03       100164.21       100168.03
  0.00027173405       100162.43        100088.9        100107.4       100184.44       100115.53       100159.47       100172.54       100160.81        100162.4        100139.4       100171.51       100158.07       100160.42       100197.08       100174.69       100162.85       100163.56       100168.06
  0.00027884236       100162.49       100087.96       100112.87       100185.18       100112.42       100160.45       100171.88       100161.42       100163.04       100139.43       100171.44       100158.32       100160.56       100196.38       100175.12       100162.81       100162.96       100168.18
  0.00028582647       100162.49       100086.95       100117.91        100185.9       100109.49       100160.58       100171.32       100161.98       100163.63       100139.44       100171.36       100158.53       100160.67       100195.63       100175.45       100162.67       100162.38       100168.25
  0.00029265348       100162.42       100085.93        100122.4       100186.57       100106.76       100160.31       100170.96       100162.43       100164.06       100139.39       100171.22       100158.67        100160.7        100194.8       100175.73       100162.43       100161.74       100168.27
  0.00029936594       100162.37       100084.99       100126.48       100187.26       100104.27       100159.42       100170.96       100162.89        100164.5       100139.39       100171.14       100158.83       100160.76       100193.95       100176.02       100162.21       100161.18       100168.31
  0.00030600377       100162.33       100084.11       100130.13       100187.94       100101.91       100158.35       100171.17       100163.36       100164.93       100139.42       100171.07       100159.02       100160.85       100193.13       100176.32       100161.95       100160.61       100168.38
  0.00031260378       100162.31       100083.27       100133.44       100188.59       100099.53       100157.35       100171.58       100163.83       100165.33        100139.5       100171.06       100159.22       100160.94       100192.22       100176.62       100161.72       100160.12       100168.46
  0.00031920001       100162.26       100082.39       100136.48       100189.18       100097.25       100156.44       100172.13       100164.27       100165.66       100139.57       100171.03        100159.4       100161.03       100191.33       100176.91        100161.4       100159.61       100168.54
  0.00032582295       100162.23        100081.5       100139.38        100189.7       100095.08       100155.87       100172.75       100164.71       100166.03       100139.66       100171.04        100159.6       100161.15       100190.37       100177.21       100161.15       100159.15       100168.65
  0.00033249298       100162.15       100080.49        100142.2       100190.05       100093.24       100155.69       100173.36       100165.12       100166.33       100139.72       100171.03       100159.77       100161.22       100189.35       100177.48       100160.76       100158.63       100168.71
  0.00033923416       100162.06        100079.4       100145.03       100190.29       100091.68       100155.87       100173.95       100165.48       100166.62       100139.77       100171.02       100159.92       100161.28       100188.24       100177.73       100160.35       100158.18       100168.77
  0.00034607147       100161.95       100078.21       100147.89       100190.38       100090.81       100156.27       100174.42       100165.86       100166.88       100139.84       100171.02       100160.08       100161.34       100187.08       100177.96        100159.9       100157.71       100168.82
  0.00035302651       100161.86       100076.93       100150.75       100190.43        100090.2       100156.83       100174.79       100166.23       100167.16       100139.92       100171.06       100160.24       100161.42       100185.86       100178.21       100159.44       100157.28        100168.9
  0.00036011806       100161.74       100075.63       100153.48       100190.42       100090.07       100157.43       100174.97       100166.56       100167.45          100140       100171.09       100160.39       100161.48       100184.61       100178.44       100158.94       100156.87       100168.96
  0.00036736059       100161.61       100074.44       100155.98       100190.41       100090.76        100157.9       100175.07        100166.9       100167.74       100140.08       100171.12       100160.53       100161.55       100183.23       100178.67       100158.42       100156.44       100169.02
  0.00037469002       100161.56       100073.69       100158.15       100190.43       100091.61       100158.27       100175.18       100167.33       100168.15       100140.25       100171.26       100160.79        100161.7       100181.89       100178.99       100157.86       100156.09       100169.17
  0.00038197003       100161.31       100073.19       100159.57       100190.14        100092.5       100158.31       100174.97       100167.53       100168.41       100140.24        100171.2       100160.82       100161.67       100180.42       100179.09       100157.15       100155.61       100169.12
  0.00038921375       100161.11        100073.2       100160.45       100189.72        100093.4       100158.19       100174.63       100167.79       100168.72       100140.29       100171.19       100160.92       100161.69          100179       100179.25       100156.42       100155.18       100169.13
   0.0003964356        100160.9       100073.65        100160.7       100189.09       100094.34       100158.09        100174.1       100168.03       100169.06       100140.32        100171.2       100161.02       100161.71       100177.58       100179.42       100155.74       100154.81       100169.14
  0.00040364713       100160.71        100074.4       100160.28       100188.14       100095.62       100158.18       100173.31       100168.32       100169.44       100140.41       100171.23       100161.15       100161.77       100176.24        100179.6       100155.04       100154.52       100169.19
  0.00041085743        100160.5       100075.36       100159.03       100186.88       100097.12       100158.35       100172.25       100168.58       100169.86        100140.5       100171.25       100161.27       100161.82       100174.89       100179.77       100154.45       100154.18       100169.23
  0.00041807333       100160.25        100076.4       100156.83       100185.32       100099.07       100158.45       100170.93       100168.85       100170.24       100140.56       100171.27       100161.39       100161.85       100173.51       100179.92       100153.64       100153.79       100169.26
  0.00042529958       100159.99       100077.47       100153.69       100183.46       100101.33       100158.42        100169.5       100169.09       100170.68       100140.65       100171.27       100161.51       100161.89       100172.06       100180.07       100152.93       100153.61        100169.3
  0.00043253908        100159.7       100078.56        100149.7       100181.37       100103.87        100158.2       100168.12       100169.34        100171.1       100140.73       100171.26       100161.62       100161.93       100170.61       100180.22       100152.13       100153.31       100169.33
  0.00043979306        100159.4       100079.64       100145.26       100178.89       100106.46       100157.76       100167.02       100169.58       100171.56       100140.81       100171.27       100161.74       100161.98       100169.07       100180.38       100151.49       100153.03       100169.37
  0.00044705902       100159.09       100080.75       100140.95       100175.94       100108.93       100157.16        100166.3       100169.83       100172.02        100140.9       100171.26       100161.87       100162.03       100167.55       100180.53       100150.63       100152.77       100169.41
  0.00045433241       100158.72       100081.85       100137.64       100172.46       100111.09       100156.39       100165.85       100170.04       100172.44       100140.94       100171.23       100161.97       100162.05       100166.06       100180.64       100149.86       100152.45       100169.43
  0.00046160933       100158.36          100083       100136.41          100169       100112.91       100155.61       100165.56       100170.26       100172.88       100140.98       100171.21       100162.08       100162.09       100164.67       100180.77       100149.12       100152.17       100169.46
  0.00046888482       100157.99       100084.16       100137.55       100165.87       100114.42       100154.78       100165.32       100170.47       100173.27       100141.05       100171.18       100162.19       100162.11       100163.45        100180.9       100148.29       100151.91       100169.47
  0.00047615317       100157.61       100085.34       100141.08       100163.77       100115.53       100153.93       100165.05       100170.67        100173.7       100141.08       100171.14        100162.3       100162.14       100162.49       100181.02       100147.47       100151.64       100169.48
   0.0004834082       100157.25       100086.53       100146.63       100162.97       100116.49       100152.99       100164.68       100170.89       100174.04       100141.12       100171.12       100162.43       100162.17       100161.77       100181.15       100146.73       100151.37       100169.49
  0.00049064369        100156.9       100087.69       100153.41       100163.49       100116.95       100151.97       100164.22       100171.08       100174.35       100141.16       100171.09       100162.55        100162.2       100161.32       100181.29       100145.92        100151.1       100169.51
  0.00049785378       100156.57       100088.79       100159.75       100164.54       100117.53       100150.95       100163.66       100171.28       100174.64       100141.19       100171.06       100162.68       100162.23       100161.02       100181.43       100145.21       100150.86       100169.53
  0.00050503343       100156.26       100089.84       100164.38       100165.84        100118.2       100149.82       100163.07       100171.46       100174.95        100141.2       100171.05       100162.81       100162.28       100160.84       100181.55       100144.39       100150.62       100169.54
  0.00051217885       100155.97       100090.79       100166.97       100167.42       100119.21       100148.67       100162.49       100171.65       100175.25       100141.23       100171.01       100162.95        100162.3       100160.73        100181.7       100143.77       100150.41       100169.57
  0.00051928795       100155.72       100091.58       100168.05       100169.33       100120.68       100147.45       100161.99       100171.82       100175.44       100141.26       100170.99       100163.09       100162.34       100160.58       100181.83       100143.05       100150.16       100169.58
  0.00052636056       100155.47        100092.2       100168.27       100171.44       100122.57       100146.13       100161.67       100171.99       100175.64       100141.28       100170.94       100163.23       100162.38       100160.38       100181.97       100142.53       100149.93        100169.6
  0.00053339861       100155.26       100092.64       100168.18       100173.74       100124.68       100144.77       100161.56       100172.18       100175.91        100141.3        100170.9       100163.38       100162.43       100160.12       100182.09       100141.96       100149.73       100169.62
  0.00054040572       100155.07       100092.91       100168.09       100176.16       100126.74       100143.36       100161.66       100172.36       100176.08       100141.33       100170.88       100163.53        100162.5       100159.71       100182.24       100141.54       100149.56       100169.66
  0.00054738682        100154.9       100093.04       100168.08       100178.62       100128.45       100141.86       100161.95       100172.56       100176.29       100141.34       100170.82       100163.69       100162.52       100159.11       100182.37        100141.2       100149.39       100169.68
  0.00055434982       100154.73       100093.05       100168.09       100180.99       100129.64       100140.24       100162.38       100172.71       100176.54       100141.33       100170.75       100163.81       100162.55       100158.24        100182.5       100140.74       100149.22       100169.69
  0.00056130452       100154.61       100093.07       100168.06       100183.21       100130.37       100138.56       100162.92        100172.9       100176.44       100141.33       100170.71       100163.97       100162.62       100157.15       100182.62       100140.37       100149.04       100169.72
  0.00056826238        100154.5       100093.09       100167.93       100185.18       100130.89       100136.75       100163.49       100173.08       100176.52       100141.34       100170.66       100164.11       100162.68       100155.77       100182.73       100140.24       100148.93       100169.74
  0.00057523636       100154.39       100093.19       100167.92       100186.87       100131.61       100134.79       100163.97       100173.25       100176.35       100141.35        100170.6       100164.24       100162.71       100154.06       100182.83       100140.11       100148.77       100169.76
  0.00058224079       100154.32       100093.36       100168.12       100188.32       100132.68       100132.69       100164.38       100173.43       100176.23       100141.32       100170.55       100164.37       100162.77       100152.11       100182.97       100140.26       100148.68       100169.79
  0.00058928499       100154.34       100093.66       100168.47       100189.57       100134.09       100130.53       100164.75       100173.69       100176.04       100141.38       100170.59       100164.58       100162.92       100149.98       100183.13       100140.33       100148.52       100169.88
  0.00059629818       100154.26       100093.95       100168.57       100190.53       100135.47       100128.11       100164.91       100173.83        100175.8       100141.31       100170.49       100164.66       100162.93       100147.56        100183.2       100140.53       100148.48       100169.86
  0.00060325991       100154.23       100094.34       100168.51       100191.32       100136.83       100125.68       100165.08       100173.99       100175.26        100141.3       100170.44       100164.77       100162.94       100145.01       100183.27       100140.67       100148.34       100169.85
   0.0006101765       100154.21        100094.8       100168.21       100191.96       100138.08       100123.15       100165.22       100174.17          100175        100141.3       100170.35       100164.88          100163       100142.33       100183.34          100141       100148.24       100169.85
  0.00061705605       100154.21       100095.35       100167.71       100192.52       100139.26       100120.57       100165.27       100174.32       100174.59       100141.27       100170.31       100164.98       100163.07       100139.58       100183.41       100141.22       100148.25       100169.84
  0.00062390811       100154.23       100096.06       100167.06       100192.76       100140.41       100117.92       100165.34        100174.5       100174.24       100141.28       100170.24       100165.09        100163.1       100136.83       100183.48       100141.56       100148.25       100169.84
  0.00063074334       100154.28       100096.92       100166.29       100192.64       100141.67        100115.3       100165.37       100174.67       100173.98       100141.29        100170.2       100165.21       100163.16       100134.19       100183.56       100141.92       100148.32       100169.86
  0.00063757329       100154.33       100097.94       100165.37       100192.02       100143.09       100112.63       100165.33       100174.85       100173.74       100141.32       100170.14       100165.31       100163.19       100131.77       100183.62       100142.49       100148.37       100169.86
  0.00064441029       100154.38       100099.06        100164.4          100191       100144.74       100110.08       100165.33       100175.04       100173.41       100141.33       100170.09       100165.43       100163.26       100129.78       100183.71       100142.63       100148.47       100169.87
  0.00065126723       100154.44        100100.3       100163.32       100189.61       100146.59       100107.56       100165.26        100175.2       100173.19       100141.31       100170.02       100165.54       100163.29       100128.35       100183.77       100143.06       100148.62       100169.87
  0.00065815755       100154.49        100101.7       100162.18       100187.95        100148.6        100105.1       100165.24       100175.36       100172.85       100141.33       100169.94       100165.63       100163.35       100127.47       100183.85       100143.51       100148.74       100169.86
  0.00066509516       100154.55       100103.34       100160.97       100186.05        100150.7       100102.78        100165.2       100175.55        100172.5       100141.36       100169.87       100165.75       100163.39       100127.17       100183.93       100143.83          100149       100169.88
  0.00067204754       100154.63       100105.19       100159.75       100183.96        100152.8       100100.59       100165.17       100175.75       100172.18       100141.42       100169.82       100165.89       100163.49       100127.33       100184.03       100144.32       100149.09       100169.91