# Probe 0 (0 0.005 0)
# Probe 1 (-0.01 -0.005 0)
# Probe 2 (0.01 -0.005 0)
# Probe 3 (0 -0.005 0.01)
# Probe 4 (0 -0.005 -0.01)
# Probe 5 (-0.01 0.005 0)
# Probe 6 (0.01 0.005 0)
# Probe 7 (0 0.005 0.01)
# Probe 8 (0 0.005 -0.01)
# Probe 9 (-0.005 0.005 0)
# Probe 10 (0.005 0.005 0)
# Probe 11 (0 0.005 0.005)
# Probe 12 (0 0.005 -0.005)
# Probe 13 (-0.01 0.015 0)
# Probe 14 (0.01 0.015 0)
# Probe 15 (0 0.015 0.01)
# Probe 16 (0 0.015 -0.01)
# Probe 17 (0 0.015 0)
#         Probe               0               1               2               3               4               5               6               7               8               9              10              11              12              13              14              15              16              17
#          Time
  6.3821374e-06               (0.37614692 -1.6218943 1.7262736)               (6.0283104 18.718772 -7.2122237)               (-7.6722459 7.1495677 11.218713)               (-8.8029839 2.4661349 1.8573747)               (5.7150101 7.6279316 0.22839964)               (1.8916613 7.5728695 -9.3802245)               (-2.8914036 12.1815 11.807572)               (-3.238053 -2.3464509 4.438905)               (0.99190104 1.8345985 -3.6676551)               (3.1200026 -1.5583686 0.64758788)               (-1.3264012 -1.8200969 3.3154964)               (-3.375788 -4.031735 1.8998276)               (0.68663577 1.5443524 -0.51073113)               (-1.6713742 -2.0701069 -5.4049937)               (2.1658237 3.1145874 3.1242685)               (0.10225401 1.0267726 3.5657665)               (1.6385283 3.5974601 -2.027833)               (3.6289098 -3.3569921 0.63028847)
  1.2801499e-05               (0.34496293 -1.584311 1.7402966)               (6.5616583 18.01879 -6.7652612)               (-7.8587035 7.493949 11.263742)               (-8.7281873 2.7617597 1.9900327)               (5.4764312 7.584949 0.34850458)               (1.7968394 7.3683495 -9.3490878)               (-2.7588052 12.115245 11.766794)               (-3.2525785 -2.3379621 4.5080101)               (1.0068684 1.8510127 -3.7361715)               (3.1355509 -1.5878553 0.69383803)               (-1.3387971 -1.8112391 3.3092462)               (-3.3598475 -4.0455729 1.9023246)               (0.67217172 1.5512766 -0.47495682)               (-1.6330542 -1.979678 -5.4515545)               (2.2670911 3.1480123 3.2476359)               (0.13957941 1.0469508 3.5780688)               (1.7003054 3.6332657 -2.00891)               (3.6315408 -3.3061721 0.63730489)
  1.9217828e-05               (0.31386034 -1.5470954 1.754638)               (6.5814452 17.507029 -6.3367047)               (-7.986235 7.8622365 11.293209)               (-8.7008882 3.0281211 1.9353706)               (5.2437749 7.5170394 0.47328225)               (1.6990605 7.2008214 -9.2641252)               (-2.6251961 11.855079 11.788225)               (-3.2732646 -2.3271559 4.5726583)               (1.0272183 1.8656539 -3.8074425)               (3.1511988 -1.6135373 0.73986618)               (-1.352028 -1.8029892 3.3028096)               (-3.3436103 -4.0605221 1.8997107)               (0.65655562 1.5596001 -0.43938475)               (-1.590997 -1.8799282 -5.5024536)               (2.3717493 3.1750547 3.3767576)               (0.17548633 1.0644517 3.5906243)               (1.7605893 3.6722229 -1.9867312)               (3.6339305 -3.2538696 0.64401937)
  2.5634389e-05               (0.28289857 -1.5101691 1.769393)               (5.7119948 17.258282 -5.8328879)               (-8.0809586 8.2548598 11.300479)               (-8.7216433 3.2678014 1.7014459)               (5.0207562 7.4270584 0.60030647)               (1.6062527 7.0790737 -9.1134463)               (-2.550825 11.51508 11.852698)               (-3.3000445 -2.3141316 4.6327974)               (1.0534973 1.8783375 -3.8814335)               (3.166019 -1.636064 0.78506307)               (-1.3661711 -1.7952935 3.2962582)               (-3.3272601 -4.0757994 1.8928703)               (0.64053319 1.5695768 -0.40409314)               (-1.5446555 -1.7695702 -5.5564536)               (2.4785811 3.1950835 3.5102301)               (0.20758504 1.0789964 3.6030398)               (1.8191875 3.7144052 -1.9612501)               (3.6360691 -3.200094 0.65048079)
    3.20554e-05               (0.25215256 -1.4734796 1.784675)               (4.3751356 17.101696 -5.2591732)               (-8.1906048 8.6373449 11.293592)               (-8.7740813 3.5077361 1.3537511)               (4.8087802 7.322139 0.72575369)               (1.5258618 7.0090809 -8.8929452)               (-2.5537789 11.192305 11.923372)               (-3.3328918 -2.2988265 4.6884218)               (1.0860389 1.8890313 -3.9580423)               (3.1799913 -1.6554133 0.82932674)               (-1.3812468 -1.7881494 3.2896315)               (-3.3109411 -4.0906621 1.8826295)               (0.62352898 1.5812856 -0.36859292)               (-1.4944974 -1.6482083 -5.6130332)               (2.586642 3.2073205 3.6463596)               (0.23712388 1.0909186 3.6150805)               (1.8758514 3.7599512 -1.9323985)               (3.6379295 -3.1448421 0.65674543)
  3.8485817e-05               (0.22170164 -1.436994 1.8005934)               (3.3152497 16.787146 -4.7377236)               (-8.3332197 8.9689105 11.301243)               (-8.8238669 3.8020921 0.9936504)               (4.6085417 7.2128714 0.84599575)               (1.46433 6.9918983 -8.606368)               (-2.60675 10.936436 11.957918)               (-3.3716115 -2.2814008 4.7394854)               (1.1251434 1.8976058 -4.0370207)               (3.1930785 -1.6716438 0.87234001)               (-1.3972428 -1.7815962 3.2829537)               (-3.2947859 -4.1044477 1.8697259)               (0.60568176 1.5945378 -0.33279563)               (-1.4403019 -1.5148007 -5.67223)               (2.6953507 3.2108656 3.7832882)               (0.26447536 1.1000808 3.6268857)               (1.9304091 3.8089263 -1.9000252)               (3.6394798 -3.0881134 0.66285488)
  4.4928804e-05               (0.1916303 -1.4007081 1.8172704)               (3.0257411 16.199156 -4.4066306)               (-8.4684438 9.2508773 11.352001)               (-8.8324458 4.2071846 0.71254818)               (4.4196495 7.1108351 0.95852865)               (1.4269766 7.0232335 -8.2636162)               (-2.6585913 10.752839 11.920369)               (-3.415924 -2.2618991 4.7859628)               (1.1709717 1.9040645 -4.1178838)               (3.2051542 -1.6846223 0.91399843)               (-1.4141184 -1.7756291 3.2762405)               (-3.278906 -4.1165588 1.8548142)               (0.58694827 1.6093359 -0.29708551)               (-1.3819942 -1.3690962 -5.7330534)               (2.804422 3.204599 3.9190481)               (0.28972026 1.1063967 3.6385247)               (1.982816 3.8612527 -1.864145)               (3.6406875 -3.0299092 0.66885387)
   5.138667e-05               (0.16202677 -1.3646503 1.8348205)               (3.5237348 15.385706 -4.3108616)               (-8.5358127 9.5335978 11.445951)               (-8.7791566 4.7351015 0.5479992)               (4.2401349 7.0294562 1.0620402)               (1.4176099 7.0950852 -7.8782097)               (-2.6677737 10.628717 11.78687)               (-3.465488 -2.2404843 4.827879)               (1.2236514 1.9085586 -4.2001)               (3.2163795 -1.6942838 0.95415545)               (-1.4318457 -1.7702907 3.2694623)               (-3.2634045 -4.1265091 1.8384763)               (0.56772886 1.6255304 -0.26141576)               (-1.3193277 -1.210288 -5.7949687)               (2.913895 3.1872552 4.0516561)               (0.31268578 1.1097985 3.6499659)               (2.0329247 3.9167895 -1.8247334)               (3.6414964 -2.9702363 0.67477719)
  5.7865338e-05               (0.13297095 -1.3288576 1.8533793)               (4.3983888 14.530203 -4.3740456)               (-8.5121739 9.87727 11.552249)               (-8.6750379 5.3223631 0.47446441)               (4.0700189 6.980311 1.1555837)               (1.4381231 7.1978568 -7.4645044)               (-2.6240109 10.55797 11.544501)               (-3.5199037 -2.2174079 4.865305)               (1.2832716 1.9109863 -4.2829807)               (3.2264905 -1.7007679 0.99234965)               (-1.4503707 -1.765646 3.2625869)               (-3.2483406 -4.1339052 1.8212036)               (0.54826516 1.6430826 -0.22602217)               (-1.25224 -1.0378579 -5.8586873)               (3.0241771 3.1574223 4.1793079)               (0.33352465 1.110165 3.6618933)               (2.0808239 3.9753379 -1.7816343)               (3.6418504 -2.9090632 0.6806576)
  6.4371108e-05               (0.1045346 -1.2933994 1.8730923)               (5.1016603 13.834297 -4.4242776)               (-8.414464 10.322334 11.637823)               (-8.5571997 5.8439671 0.43718884)               (3.9088767 6.973726 1.2383289)               (1.4879229 7.3224789 -7.0361118)               (-2.5470866 10.550088 11.188477)               (-3.5786789 -2.1928275 4.8982338)               (1.3498301 1.9114764 -4.3658247)               (3.2356358 -1.7040131 1.0286965)               (-1.4696326 -1.7617272 3.2555742)               (-3.2337577 -4.13845 1.8034289)               (0.52819694 1.661924 -0.1910896)               (-1.1804307 -0.85128575 -5.9228148)               (3.1358042 3.1135975 4.3003388)               (0.35220159 1.1076369 3.6739726)               (2.1263241 4.0365537 -1.7347585)               (3.6416844 -2.846359 0.68653089)
   7.091043e-05               (0.076778122 -1.2583815 1.8941129)               (5.2748099 13.400368 -4.3188736)               (-8.2537069 10.889276 11.690693)               (-8.4702096 6.1698206 0.39630222)               (3.7565091 7.0176569 1.3090365)               (1.5635439 7.4615116 -6.6050797)               (-2.4670506 10.624767 10.719503)               (-3.6413192 -2.1669731 4.9266294)               (1.4232259 1.9101875 -4.4480681)               (3.2438349 -1.7038874 1.0631837)               (-1.489595 -1.7585501 3.2483728)               (-3.2196904 -4.1399152 1.7855413)               (0.50741763 1.6820198 -0.15648752)               (-1.104515 -0.65062607 -5.9872653)               (3.2492227 3.0543986 4.4132541)               (0.36885932 1.1019737 3.6865137)               (2.1694888 4.0998641 -1.6840399)               (3.6409204 -2.7820788 0.69242679)
  7.7489682e-05               (0.049746439 -1.2239554 1.9165952)               (4.8702775 13.199721 -4.0427639)               (-8.00376 11.585063 11.71363)               (-8.4504183 6.228117 0.33953891)               (3.6143062 7.1158835 1.3653147)               (1.6589303 7.6097511 -6.1818048)               (-2.4034918 10.800049 10.144119)               (-3.7071887 -2.1401935 4.9505138)               (1.5036539 1.907304 -4.528912)               (3.2508587 -1.7004929 1.0956535)               (-1.5102239 -1.7561938 3.2409464)               (-3.2061452 -4.1381591 1.767862)               (0.4865283 1.7030833 -0.12257172)               (-1.0244585 -0.4354609 -6.0524285)               (3.3645827 2.978717 4.5166989)               (0.38375478 1.0929099 3.6995606)               (2.2104433 4.1649094 -1.629379)               (3.6394694 -2.7161788 0.6983743)
  8.4114901e-05               (0.023486056 -1.1903218 1.9407096)               (4.1325583 13.095426 -3.6970458)               (-7.6228831 12.404375 11.706684)               (-8.5161724 6.0476189 0.26596481)               (3.4850923 7.2665873 1.4044333)               (1.7660261 7.7634742 -5.77495)               (-2.3573013 11.081344 9.4764126)               (-3.7755996 -2.1128949 4.9698217)               (1.5912475 1.9026085 -4.6075309)               (3.2567384 -1.6939044 1.1259321)               (-1.5314581 -1.7546841 3.2332681)               (-3.1931254 -4.1330992 1.750689)               (0.46508232 1.7252149 -0.08911629)               (-0.94112897 -0.20634495 -6.1180942)               (3.4815736 2.8859284 4.6095026)               (0.39685935 1.0802799 3.7131612)               (2.2490052 4.2308905 -1.5706787)               (3.6372374 -2.648624 0.70439698)
  9.0791474e-05               (-0.0019869595 -1.1577268 1.9666152)               (3.4165419 12.953374 -3.4143)               (-7.0907941 13.331732 11.6661)               (-8.6584532 5.7517669 0.17730249)               (3.374076 7.4595306 1.4251939)               (1.8756102 7.9201248 -5.391629)               (-2.3195113 11.457159 8.7376966)               (-3.8457608 -2.0854623 4.9844616)               (1.6857877 1.8958505 -4.6833333)               (3.2614096 -1.6840286 1.1539907)               (-1.5532167 -1.7540566 3.2253004)               (-3.1806271 -4.1247034 1.7342889)               (0.44317171 1.7483212 -0.056200693)               (-0.85545431 0.036610804 -6.1819667)               (3.5992342 2.7762558 4.6905051)               (0.40836547 1.0639932 3.7272227)               (2.2851753 4.2967713 -1.5083668)               (3.6341175 -2.5793798 0.71052124)
  9.7523966e-05               (-0.026675871 -1.1264645 1.9944584)               (2.9982339 12.719036 -3.2827526)               (-6.4213364 14.343705 11.587283)               (-8.8397378 5.4895803 0.088725811)               (3.2897187 7.6742449 1.4300737)               (1.9787563 8.0771856 -5.037426)               (-2.2844738 11.901441 7.9539904)               (-3.916811 -2.0584921 4.9943547)               (1.787434 1.8866806 -4.7557757)               (3.2645024 -1.6711068 1.179546)               (-1.5754123 -1.7544196 3.2170209)               (-3.1686335 -4.1129784 1.7188908)               (0.42075834 1.7722549 -0.023901093)               (-0.76936863 0.29366935 -6.2471582)               (3.7160575 2.6508499 4.7585792)               (0.41852867 1.0436884 3.7417426)               (2.3190411 4.3615912 -1.44213)               (3.6299942 -2.5084356 0.71676389)
  0.00010431593               (-0.050595025 -1.0968718 2.0243815)               (2.9797072 12.436194 -3.3107979)               (-5.6502397 15.414397 11.467532)               (-9.0099682 5.3472443 0.032273617)               (3.2448922 7.8793073 1.4289653)               (2.0674364 8.2316228 -4.7167223)               (-2.2584661 12.378061 7.1507876)               (-3.9878483 -2.0326265 4.9993794)               (1.8962835 1.874386 -4.8244376)               (3.2657993 -1.6550799 1.2025087)               (-1.5979219 -1.7558828 3.2084601)               (-3.1571287 -4.097969 1.7047042)               (0.39796833 1.7969098 0.0077443879)               (-0.68276618 0.56344996 -6.3122332)               (3.8300664 2.5120071 4.8125964)               (0.42712411 1.0190099 3.7561269)               (2.3505191 4.4242044 -1.3723342)               (3.6247513 -2.4357941 0.72314961)
  0.00011116987               (-0.073799792 -1.0693215 2.0565058)               (3.2629851 12.21129 -3.4336757)               (-4.8184994 16.512219 11.302108)               (-9.1313894 5.306679 0.037363022)               (3.2585407 8.0331439 1.4395698)               (2.1352494 8.3793909 -4.4333584)               (-2.2573073 12.847594 6.3504733)               (-4.0579108 -2.0087177 4.9993188)               (2.0125066 1.8581019 -4.8891167)               (3.2653961 -1.636092 1.2230786)               (-1.6206063 -1.7585948 3.1996407)               (-3.1460932 -4.0797465 1.6918989)               (0.37500959 1.8222267 0.038645242)               (-0.5996666 0.8454637 -6.3773381)               (3.938933 2.3631156 4.8514327)               (0.43419149 0.99026083 3.771144)               (2.379464 4.4835232 -1.2983374)               (3.6182542 -2.3614764 0.72969149)
   0.0001180873               (-0.096360579 -1.0442055 2.0909169)               (3.6238372 12.143335 -3.5452301)               (-3.9628048 17.590718 11.08313)               (-9.1934089 5.2815879 0.10545178)               (3.3556079 8.095195 1.4849126)               (2.1773565 8.5157161 -4.1908505)               (-2.2978395 13.273447 5.5711806)               (-4.1260731 -1.9875537 4.9940459)               (2.1363299 1.8366952 -4.9496425)               (3.2627868 -1.6143345 1.241246)               (-1.6432549 -1.7626956 3.190611)               (-3.1355003 -4.0584009 1.6806285)               (0.35177851 1.8480445 0.068786107)               (-0.52091777 1.1411654 -6.4381857)               (4.0402932 2.208555 4.8741813)               (0.43996715 0.95685941 3.7864152)               (2.4058739 4.5381102 -1.2206569)               (3.6103886 -2.2855267 0.73640378)
  0.00012506887               (-0.11839156 -1.0219049 2.1276818)               (3.8332604 12.256596 -3.548041)               (-3.1081826 18.588914 10.824796)               (-9.2059214 5.2000827 0.2082644)               (3.5630836 8.0367705 1.5856935)               (2.1900716 8.6352293 -3.9930025)               (-2.3896748 13.625603 4.8265121)               (-4.1914586 -1.9702 4.9835053)               (2.2679411 1.8088738 -5.0058965)               (3.2576145 -1.5897257 1.2571623)               (-1.6656225 -1.7683769 3.1814449)               (-3.1253464 -4.0340344 1.6710159)               (0.32835689 1.8742065 0.098101581)               (-0.44798701 1.4479593 -6.4967615)               (4.1320486 2.0533625 4.8802331)               (0.44451639 0.91853159 3.8013634)               (2.4298002 4.5863726 -1.1394535)               (3.6010296 -2.2080121 0.74329635)
  0.00013211472               (-0.14003917 -1.0027911 2.1668257)               (3.7648604 12.477465 -3.409513)               (-2.2737809 19.447545 10.5316)               (-9.180226 5.0604356 0.31195982)               (3.902745 7.8531152 1.7505848)               (2.1707835 8.733029 -3.8438998)               (-2.5311648 13.884984 4.1247044)               (-4.2531909 -1.9575509 4.9677441)               (2.4075486 1.7734284 -5.0578966)               (3.2495317 -1.5623581 1.2709609)               (-1.6874319 -1.7758249 3.1722462)               (-3.1156121 -4.006779 1.6631607)               (0.30483038 1.9005551 0.1264223)               (-0.38418391 1.7657062 -6.5516668)               (4.2127444 1.9027693 4.8694054)               (0.44778324 0.87520894 3.8156555)               (2.4512938 4.6271777 -1.0545782)               (3.5900699 -2.1290227 0.75037973)
  0.00013922472               (-0.16148271 -0.9871955 2.2083278)               (3.4340402 12.676524 -3.1722527)               (-1.466831 20.128499 10.187844)               (-9.121474 4.9112086 0.39905437)               (4.3756302 7.5650694 1.972276)               (2.1169518 8.8053339 -3.7482896)               (-2.7090082 14.038979 3.4713864)               (-4.3105054 -1.9505087 4.9468741)               (2.5549874 1.7292835 -5.1054882)               (3.2380077 -1.5324133 1.2827132)               (-1.7083726 -1.7852853 3.1631274)               (-3.1063036 -3.9767788 1.6571377)               (0.28232384 1.9268953 0.15386537)               (-0.3302529 2.0959091 -6.5988272)               (4.2817884 1.761705 4.8419411)               (0.44971676 0.82669205 3.8289061)               (2.4709051 4.6589104 -0.96669649)               (3.5774074 -2.0486675 0.75765895)
  0.00014639432               (-0.18291906 -0.97539547 2.2521005)               (2.9585308 12.750465 -2.9156617)               (-0.68946141 20.616521 9.7996757)               (-9.0365566 4.791768 0.47016164)               (4.9603003 7.2087957 2.2267195)               (2.0263198 8.8499913 -3.7113409)               (-2.9023361 14.085944 2.8693338)               (-4.3627454 -1.9497774 4.9212375)               (2.7098255 1.6756329 -5.1486522)               (3.2227672 -1.4999347 1.2927075)               (-1.7280716 -1.7969445 3.1542107)               (-3.0974348 -3.9441936 1.6530323)               (0.25990385 1.9531172 0.18032914)               (-0.28755805 2.4385279 -6.6394197)               (4.3395693 1.6342946 4.7984495)               (0.4491479 0.77290634 3.8406776)               (2.4888516 4.6803583 -0.87571227)               (3.562971 -1.9671304 0.7651155)
  0.00015358429               (-0.20447919 -0.9676173 2.2977793)               (2.4984703 12.677075 -2.7095416)               (0.052986464 20.932044 9.3686142)               (-8.9416042 4.702465 0.53280748)               (5.6078281 6.8376321 2.4857478)               (1.8977664 8.8668322 -3.7376089)               (-3.0865055 14.03924 2.319141)               (-4.4092478 -1.9558377 4.8912907)               (2.870317 1.612583 -5.186778)               (3.2035355 -1.4649459 1.3017007)               (-1.7460692 -1.8109476 3.1456516)               (-3.0890654 -3.9093786 1.6509096)               (0.23779405 1.9788806 0.20579708)               (-0.25713963 2.7934853 -6.6708028)               (4.3873029 1.523772 4.7402182)               (0.44731571 0.7141806 3.8506105)               (2.5049075 4.6902991 -0.78245209)               (3.5468015 -1.885013 0.77269699)
  0.00016078826               (-0.22640801 -0.96390088 2.3451463)               (2.1719121 12.52181 -2.5842945)               (0.75323211 21.117156 8.9021972)               (-8.8562673 4.6203586 0.59211396)               (6.2518564 6.5270599 2.7281594)               (1.7305133 8.858046 -3.8301946)               (-3.239174 13.913909 1.8187972)               (-4.4499089 -1.9685793 4.8577134)               (3.0347237 1.5407237 -5.2195173)               (3.1796237 -1.4277132 1.3095487)               (-1.7620139 -1.82743 3.1375829)               (-3.0812184 -3.8725361 1.6508075)               (0.21604236 2.0039409 0.23009105)               (-0.23975021 3.1632318 -6.6944217)               (4.4274254 1.4311026 4.6687805)               (0.44409408 0.6506659 3.8579318)               (2.5202581 4.6878396 -0.68797053)               (3.5289039 -1.8025639 0.78036549)
  0.00016801054               (-0.24899946 -0.96419219 2.39402)               (2.006894 12.377985 -2.5195883)               (1.4061909 21.190251 8.4096577)               (-8.7939814 4.5289712 0.64829238)               (6.8120299 6.3810151 2.9446261)               (1.5247958 8.8266154 -3.9902216)               (-3.3453611 13.73443 1.3655106)               (-4.4848939 -1.9876456 4.8209583)               (3.2013014 1.4613676 -5.246872)               (3.1509617 -1.3882406 1.3164175)               (-1.7755912 -1.8465247 3.1301135)               (-3.0739211 -3.8338097 1.6527653)               (0.19472968 2.0281873 0.25325117)               (-0.23293115 3.5500339 -6.7069598)               (4.4628409 1.3556444 4.5857316)               (0.44001285 0.58243533 3.8634626)               (2.5346244 4.6726352 -0.59221511)               (3.5093015 -1.7199293 0.78809614)
  0.00017525607               (-0.27256595 -0.9683723 2.44419)               (1.9315932 12.315524 -2.4592415)               (2.0165657 21.160739 7.9127228)               (-8.7580547 4.4283932 0.69852671)               (7.1976686 6.5061541 3.1330012)               (1.2820076 8.7752689 -4.2169664)               (-3.3973379 13.526817 0.95847737)               (-4.5146141 -2.0121554 4.7815072)               (3.3677811 1.3765669 -5.2690954)               (3.1171989 -1.3465974 1.3225218)               (-1.7864945 -1.8683214 3.1233365)               (-3.0672022 -3.7933164 1.656826)               (0.1743807 2.0514512 0.27540872)               (-0.23587776 3.9578858 -6.7073971)               (4.4964776 1.2955894 4.4929289)               (0.43380968 0.50983551 3.8657429)               (2.5475529 4.6435958 -0.49547196)               (3.4880268 -1.6372685 0.79585236)
  0.00018253014               (-0.29742407 -0.97627178 2.4954407)               (1.8127403 12.350045 -2.3291532)               (2.5874291 21.04227 7.4364604)               (-8.7449759 4.325451 0.73994148)               (7.3325711 6.9472282 3.3030905)               (1.005916 8.7055625 -4.5067283)               (-3.3962219 13.318263 0.60069908)               (-4.5397287 -2.0407384 4.7397395)               (3.5319174 1.2890419 -5.2865936)               (3.0781937 -1.3026131 1.3282735)               (-1.794481 -1.892851 3.1173461)               (-3.0611138 -3.7511341 1.6630718)               (0.15472601 2.073618 0.29650965)               (-0.24558325 4.3897639 -6.695079)               (4.530797 1.2484467 4.3925205)               (0.42621187 0.43289843 3.8642368)               (2.5617347 4.6003842 -0.39739544)               (3.4651464 -1.554756 0.80357692)
  0.00018983813               (-0.32389106 -0.98768054 2.5475482)               (1.5307125 12.443613 -2.0626159)               (3.119835 20.850257 7.0042513)               (-8.7497104 4.2214329 0.77266191)               (7.1889802 7.6405358 3.4745795)               (0.7045578 8.616513 -4.8502534)               (-3.3546086 13.134468 0.30437683)               (-4.561011 -2.0717699 4.6958029)               (3.6908626 1.2018954 -5.2999827)               (3.0337249 -1.2563028 1.3339274)               (-1.7993293 -1.9200585 3.1122067)               (-3.0557314 -3.707305 1.6715811)               (0.13568467 2.0945478 0.31667395)               (-0.25960043 4.8512467 -6.6689969)               (4.5673405 1.2115748 4.2868286)               (0.41727605 0.35193759 3.8586539)               (2.5761407 4.5427761 -0.29901075)               (3.4407573 -1.4726013 0.81120369)
  0.00019718535               (-0.35228146 -1.0023676 2.6002946)               (1.0426053 12.539863 -1.6360452)               (3.6141136 20.595967 6.6380846)               (-8.768404 4.1103286 0.80126719)               (6.8129604 8.4313729 3.6673838)               (0.39217169 8.5040942 -5.2316954)               (-3.2870421 12.998588 0.078825717)               (-4.5794934 -2.1033584 4.6497073)               (3.8417505 1.1185249 -5.3107835)               (2.9835591 -1.2076076 1.3392698)               (-1.8009261 -1.9498158 3.1080266)               (-3.0511497 -3.6618337 1.6824503)               (0.11754049 2.1140147 0.33598586)               (-0.27562538 5.3443975 -6.6281665)               (4.6066401 1.1825416 4.1783839)               (0.40701646 0.26708876 3.8485726)               (2.5916015 4.4707195 -0.20049067)               (3.4149723 -1.3910235 0.81865957)
  0.00020457693               (-0.38287639 -1.0200997 2.653475)               (0.41900586 12.598044 -1.0809054)               (4.068893 20.282513 6.3525597)               (-8.7975985 3.9867312 0.83335817)               (6.3236674 9.1370708 3.8938305)               (0.090602348 8.3628673 -5.6294149)               (-3.2156112 12.927686 -0.059400442)               (-4.5962301 -2.1334887 4.6012629)               (3.9819084 1.0418225 -5.3198919)               (2.9277317 -1.1562093 1.345003)               (-1.799273 -1.9818724 3.104842)               (-3.0475149 -3.6146742 1.6957785)               (0.10034481 2.1319353 0.35438504)               (-0.29020535 5.8716368 -6.5719752)               (4.6481229 1.1593962 4.0698354)               (0.39528094 0.1786355 3.8336319)               (2.6071064 4.3842817 -0.10286292)               (3.3879376 -1.3102843 0.82584243)
  0.00021201784               (-0.41588542 -1.0406574 2.7069129)               (-0.18749003 12.615892 -0.48163221)               (4.4823831 19.90367 6.1527642)               (-8.8336537 3.852983 0.87526549)               (5.8724747 9.6184469 4.154859)               (-0.17364467 8.1902255 -6.0226793)               (-3.1638569 12.934382 -0.094752255)               (-4.6121568 -2.1602791 4.5501616)               (4.1089922 0.97387518 -5.3290019)               (2.8662178 -1.1021578 1.3504883)               (-1.7943381 -2.0160001 3.1026878)               (-3.0449949 -3.5657261 1.7116467)               (0.083132387 2.1480932 0.37198439)               (-0.30109682 6.4313655 -6.4985767)               (4.6901556 1.1408862 3.9639216)               (0.38256128 0.08696413 3.8134393)               (2.6229112 4.2835858 -0.0058179925)               (3.3598236 -1.230666 0.83265082)
  0.00021951284               (-0.45146292 -1.0638337 2.7604526)               (-0.60556356 12.628632 0.058277117)               (4.8562097 19.447173 6.0416295)               (-8.8739441 3.7186136 0.9286308)               (5.5641608 9.8379025 4.4337665)               (-0.37681743 7.9931696 -6.4009773)               (-3.1555058 13.024298 -0.016798375)               (-4.6281468 -2.1821234 4.4961003)               (4.2212255 0.9159109 -5.3394841)               (2.7990743 -1.0451234 1.3559044)               (-1.786315 -2.0517494 3.1016702)               (-3.0438174 -3.5148517 1.7301117)               (0.06687638 2.1623296 0.38883644)               (-0.30424592 7.0189296 -6.4063574)               (4.7303403 1.1263107 3.8633318)               (0.36931638 -0.0074152039 3.7874439)               (2.6382899 4.1693454 0.088917693)               (3.3308286 -1.1524816 0.83895533)
  0.00022706654               (-0.48966156 -1.0894465 2.8139594)               (-0.74291838 12.677903 0.4645511)               (5.205982 18.900562 6.0209231)               (-8.9182642 3.594143 0.99091552)               (5.3934797 9.8709497 4.6963958)               (-0.50520333 7.7931978 -6.7717262)               (-3.2110645 13.193681 0.17792671)               (-4.6447698 -2.1979239 4.4388954)               (4.3176594 0.8678181 -5.3518928)               (2.7261613 -0.98623634 1.3598922)               (-1.7755078 -2.0886722 3.1017971)               (-3.0442847 -3.4618553 1.7511935)               (0.051623354 2.1744455 0.40504478)               (-0.29594906 7.625273 -6.2941669)               (4.7657828 1.1154555 3.7708368)               (0.35573846 -0.10405028 3.7558481)               (2.6538611 4.0421818 0.18074412)               (3.3011536 -1.0760648 0.84462244)