# Probe 0 (0 0.005 0)
# Probe 1 (-0.01 -0.005 0)
# Probe 2 (0.01 -0.005 0)
# Probe 3 (0 -0.005 0.01)
# Probe 4 (0 -0.005 -0.01)
# Probe 5 (-0.01 0.005 0)
# Probe 6 (0.01 0.005 0)
# Probe 7 (0 0.005 0.01)
# Probe 8 (0 0.005 -0.01)
# Probe 9 (-0.005 0.005 0)
# Probe 10 (0.005 0.005 0)
# Probe 11 (0 0.005 0.005)
# Probe 12 (0 0.005 -0.005)
# Probe 13 (-0.01 0.015 0)
# Probe 14 (0.01 0.015 0)
# Probe 15 (0 0.015 0.01)
# Probe 16 (0 0.015 -0.01)
# Probe 17 (0 0.015 0)
#         Probe               0               1               2               3               4               5               6               7               8               9              10              11              12              13              14              15              16              17
#          Time
    0.015415837       100162.59       100111.59        100152.7       100179.49       100165.76       100160.49       100168.64       100167.52       100173.21       100154.36       100168.51       100160.84       100168.75       100192.66       100177.43       100181.91       100186.73       100172.92
    0.015425177       100162.58       100112.08       100149.51       100179.63          100166       100161.05       100169.26       100167.47       100171.85       100154.35       100168.48       100161.02       100169.06       100193.11       100177.75       100182.03       100186.98       100172.95
    0.015434268       100162.54       100112.68       100146.38        100179.7        100166.2       100161.46       100169.81       100167.42       100170.52       100154.32       100168.42       100161.17       100169.36       100193.49       100178.02       100182.07       100187.22       100172.96
    0.015443042       100162.34       100113.21        100143.2       100179.59       100166.25       100161.68       100170.19       100167.23       100169.09       100154.12        100168.2       100161.18       100169.47       100193.59       100178.07        100181.9       100187.22        100172.8
    0.015451622        100162.2       100113.87       100140.17       100179.49       100166.35        100161.8       100170.63       100167.17       100167.81       100153.99       100168.05       100161.24       100169.63       100193.66       100178.16        100181.7        100187.3       100172.71
    0.015460109        100162.1       100114.65       100137.26        100179.4       100166.52       100161.98        100171.1       100167.27       100166.66        100153.9       100167.94       100161.35        100169.8       100193.71        100178.3       100181.53        100187.4       100172.66
    0.015468593       100162.02       100115.49       100134.42       100179.31       100166.72       100162.02       100171.61        100167.3       100165.63       100153.85       100167.86       100161.49       100169.98        100193.7       100178.48       100181.36       100187.53       100172.64
    0.015477158       100161.93       100116.34       100131.52       100179.14       100166.92       100162.12       100172.08       100167.28       100164.76       100153.77       100167.75       100161.61       100170.11       100193.58       100178.65        100181.1       100187.63       100172.61
    0.015485838       100162.02       100117.43       100128.88       100179.12       100167.32       100162.29       100172.75       100167.45        100164.2       100153.87       100167.84       100161.92        100170.4       100193.51       100178.97       100180.96        100187.9       100172.74
    0.015494367       100161.82       100118.22        100125.9       100178.78       100167.45       100162.06       100173.11       100167.31       100163.54        100153.7       100167.64       100161.94       100170.38       100193.05       100179.04       100180.54       100187.84       100172.59
    0.015502681       100161.61       100118.98       100122.88        100178.4       100167.58       100161.74       100173.43       100167.19       100163.03        100153.5       100167.42       100161.94       100170.31        100192.5       100179.07       100180.06       100187.77       100172.41
    0.015510854       100161.45       100119.79       100120.03       100178.05       100167.78       100161.57       100173.79       100167.17       100162.76       100153.36       100167.27       100162.01       100170.26       100191.98       100179.13       100179.61       100187.76       100172.28
    0.015518949       100161.32       100120.61       100117.11        100177.7       100168.05       100161.37       100174.15       100167.17       100162.69       100153.27       100167.15       100162.12       100170.21       100191.47       100179.21       100179.23       100187.78       100172.18
    0.015527017       100161.23       100121.48       100114.29       100177.36       100168.38       100161.22       100174.55       100167.24        100162.8       100153.25       100167.07       100162.22        100170.2       100191.01       100179.33       100178.87       100187.83       100172.11
    0.015535055       100161.31       100122.55       100111.63       100177.16       100168.92       100161.14       100175.11       100167.48       100163.16       100153.38       100167.16       100162.52       100170.34       100190.73       100179.59       100178.69       100188.03        100172.2
    0.015542871       100160.99       100123.22       100108.72       100176.56        100169.1       100160.69       100175.23       100167.37       100163.18       100153.12       100166.88       100162.44       100170.08       100190.13       100179.42       100178.17       100187.84       100171.89
    0.015550562       100160.84       100124.07       100106.13       100176.11       100169.47       100160.38       100175.51       100167.38       100163.39       100153.03       100166.76       100162.51       100169.96       100189.78        100179.4       100177.83       100187.82       100171.74
    0.015558199       100160.67       100124.92       100103.66        100175.6       100169.84       100160.03       100175.75       100167.45       100163.62       100152.95       100166.63       100162.58       100169.78       100189.38       100179.35       100177.54        100187.8       100171.58
    0.015565881       100160.53       100125.81       100101.36        100175.1       100170.28        100159.7       100176.01       100167.57       100163.86       100152.89       100166.54       100162.68       100169.63       100189.05       100179.34       100177.33       100187.79       100171.44
    0.015573685       100160.39       100126.74        100099.2       100174.56       100170.77       100159.34       100176.26       100167.72       100164.12       100152.83       100166.46        100162.8       100169.49        100188.7       100179.31       100177.16       100187.84       100171.32
    0.015581656       100160.24       100127.71       100097.22       100173.98       100171.27       100158.94       100176.51       100167.91       100164.35       100152.78       100166.37        100162.9        100169.3       100188.28       100179.28       100177.01       100187.88       100171.18
    0.015589821       100160.07       100128.67       100095.39       100173.32       100171.78       100158.55       100176.69       100168.02       100164.56        100152.7       100166.28       100162.99       100169.09       100187.84       100179.19       100176.84       100187.87       100171.02
    0.015598201       100159.89       100129.64       100093.71        100172.6       100172.29       100158.14       100176.87       100168.17       100164.67       100152.61       100166.16       100163.08       100168.85        100187.3       100179.07       100176.65       100187.93       100170.85
    0.015606828       100159.68        100130.6       100092.21        100171.8       100172.78       100157.75       100176.95       100168.32       100164.72       100152.51       100166.02       100163.14       100168.56       100186.67       100178.95       100176.45       100187.89       100170.64
    0.015615649       100159.59       100131.69       100091.06       100171.06       100173.38        100157.4       100177.17       100168.57       100164.82       100152.49          100166       100163.31       100168.37       100186.11       100178.93       100176.31       100187.97       100170.55
     0.01562437       100159.53       100132.76       100090.23        100170.3       100173.95       100157.14       100177.33       100168.86       100164.89        100152.5       100165.99       100163.49        100168.2       100185.49       100178.93       100176.17       100188.11       100170.46
    0.015632751        100159.2       100133.51       100089.44       100169.26       100174.21       100156.54       100177.17       100168.85       100164.68       100152.22       100165.69       100163.38       100167.73       100184.65       100178.62       100175.74        100187.9       100170.09
    0.015640843       100159.05       100134.36       100089.13       100168.36       100174.57       100156.15       100177.14          100169       100164.61        100152.1       100165.57       100163.42       100167.42       100183.96        100178.5       100175.43       100187.88       100169.87
    0.015648579       100159.02       100135.28       100089.19       100167.56          100175       100155.85       100177.19       100169.23       100164.63       100152.09       100165.56       100163.55       100167.22       100183.45       100178.47       100175.22       100187.96       100169.75
    0.015655908       100158.92       100136.06       100089.42       100166.69        100175.3       100155.48       100177.11       100169.43       100164.54          100152       100165.45       100163.61       100166.94       100182.93       100178.35       100174.91       100187.95       100169.54
    0.015662904       100158.91       100136.86       100089.93       100165.89       100175.64       100155.24       100177.06       100169.68       100164.54       100151.97       100165.42       100163.71       100166.74       100182.57        100178.3       100174.68       100188.03       100169.42
    0.015669644       100158.91       100137.68       100090.66        100165.1       100175.98       100154.95       100177.01       100169.97       100164.54       100151.96        100165.4       100163.83       100166.56       100182.25       100178.26       100174.48       100188.12        100169.3
    0.015676196       100158.99        100138.5       100091.57       100164.32       100176.33       100154.73       100176.97        100170.3       100164.58          100152       100165.42       100163.98       100166.41       100182.03       100178.29       100174.32       100188.25       100169.24
    0.015682624       100159.03       100139.29       100092.59       100163.51       100176.64        100154.5        100176.9       100170.62       100164.63          100152       100165.42        100164.1       100166.24       100181.75       100178.26       100174.15       100188.38       100169.16
    0.015688991       100159.15       100140.16       100093.79       100162.73       100177.01       100154.32       100176.85       100171.03       100164.73       100152.08       100165.47        100164.3       100166.15       100181.55       100178.33       100174.03       100188.55       100169.16
    0.015695303       100159.18       100140.94       100094.98       100161.82       100177.29       100154.03       100176.69       100171.32       100164.76       100152.07       100165.45       100164.39       100165.96       100181.25       100178.29       100173.83       100188.64       100169.05
    0.015701589       100159.23       100141.73       100096.27       100160.89       100177.57       100153.78       100176.52       100171.64       100164.83       100152.06       100165.43       100164.49       100165.78       100180.94       100178.27       100173.61       100188.75       100168.98
    0.015707897       100159.28       100142.54       100097.61       100159.93       100177.85       100153.49       100176.32       100171.97       100164.88       100152.04        100165.4       100164.57       100165.61       100180.66       100178.27       100173.39       100188.86       100168.91
    0.015714265       100159.34       100143.37       100099.01       100158.91       100178.14       100153.22       100176.12       100172.29       100164.95       100152.04       100165.38       100164.68       100165.43       100180.35       100178.28       100173.16       100188.93       100168.84
    0.015720679       100159.38       100144.21       100100.43       100157.84       100178.41       100152.92       100175.85       100172.56       100164.94          100152       100165.33       100164.74       100165.24       100180.03       100178.25       100172.88       100189.01       100168.76
    0.015727145        100159.4       100145.04       100101.86       100156.71       100178.67       100152.63       100175.55       100172.84       100164.96       100151.96       100165.27       100164.79       100165.03       100179.66       100178.21       100172.56       100189.09       100168.66
    0.015733707       100159.41       100145.88       100103.34       100155.51       100178.91       100152.26        100175.2       100173.09       100164.94       100151.88        100165.2       100164.83       100164.81       100179.22       100178.18       100172.24       100189.12       100168.56
    0.015740401       100159.49       100146.82       100104.93       100154.33       100179.23          100152       100174.88        100173.4          100165       100151.87       100165.18       100164.94       100164.65       100178.76        100178.2       100171.93        100189.2       100168.53
    0.015747222        100159.5       100147.72       100106.53       100153.03       100179.49       100151.64       100174.49       100173.66       100165.03       100151.81       100165.11       100164.98       100164.42       100178.09       100178.17       100171.55       100189.24       100168.44
    0.015754198       100159.54       100148.66       100108.24        100151.7       100179.78       100151.32       100174.09       100173.91       100165.08       100151.77       100165.05       100165.04       100164.22       100177.31       100178.17       100171.18       100189.28       100168.37
    0.015761249       100159.69       100149.72       100110.15       100150.45       100180.18        100151.1       100173.75       100174.29       100165.25       100151.83        100165.1       100165.21       100164.12       100176.64       100178.28       100170.92       100189.43        100168.4
    0.015768219       100159.61       100150.55       100111.72       100148.99       100180.37       100150.67        100173.2       100174.42       100165.22       100151.67       100164.93       100165.16       100163.81       100175.87       100178.19       100170.41       100189.35       100168.19
    0.015775155       100159.58       100151.42        100113.4       100147.58       100180.61       100150.32        100172.7       100174.62       100165.22       100151.57       100164.81       100165.16       100163.56       100175.39       100178.14          100170       100189.33       100168.04
    0.015782117       100159.67       100152.41       100115.18       100146.31       100180.98       100150.08        100172.3       100174.97       100165.38        100151.6       100164.82       100165.29       100163.44       100175.33       100178.23       100169.74       100189.42       100168.02
    0.015789022       100159.78       100153.39       100116.96       100145.07       100181.35       100149.86        100171.9       100175.31       100165.57       100151.64       100164.85       100165.43       100163.34       100175.46       100178.32       100169.51       100189.51       100167.99
    0.015795733       100159.72       100154.17       100118.54       100143.72       100181.56        100149.5       100171.36       100175.48       100165.63       100151.51       100164.71       100165.41       100163.09       100175.51       100178.22       100169.12       100189.44        100167.8
    0.015802294       100159.72       100154.98       100120.17       100142.49       100181.82       100149.23       100170.88       100175.65       100165.74       100151.46       100164.65       100165.45       100162.91       100175.65       100178.22       100168.86       100189.41       100167.67
    0.015808747       100159.82       100155.87       100121.93       100141.39       100182.18       100149.09       100170.52       100176.04       100165.99       100151.52       100164.68       100165.59       100162.84       100175.81        100178.3       100168.71       100189.51       100167.64
    0.015815064       100159.86       100156.68       100123.66       100140.31       100182.48       100148.89       100170.12       100176.21       100166.19       100151.52       100164.67       100165.68       100162.73       100175.81       100178.33       100168.58       100189.53       100167.58
     0.01582122       100159.89       100157.45       100125.37       100139.28       100182.75       100148.71       100169.73       100176.52       100166.42       100151.51       100164.65       100165.76       100162.62       100175.64       100178.34       100168.47       100189.53       100167.49
    0.015827228       100159.92        100158.2       100127.04       100138.27       100183.02       100148.57       100169.35       100176.73       100166.63       100151.51       100164.63       100165.83       100162.51       100175.32       100178.36       100168.36       100189.56       100167.42
    0.015833106       100159.94       100158.92       100128.61       100137.33       100183.28       100148.43       100168.98       100176.92       100166.84        100151.5       100164.61        100165.9       100162.41       100174.85       100178.36       100168.29       100189.55       100167.34
    0.015838832       100160.06       100159.71       100130.12       100136.52       100183.62       100148.39        100168.7       100177.18       100167.16       100151.59       100164.69       100166.06       100162.41       100174.36       100178.48        100168.3       100189.65       100167.36
    0.015844356       100160.04       100160.35       100131.27       100135.66       100183.84       100148.24       100168.32       100177.32       100167.34       100151.55       100164.64       100166.08       100162.27       100173.65       100178.46       100168.27       100189.62       100167.25
    0.015849716       100160.06          100161       100132.22       100134.88       100184.08       100148.15       100167.98       100177.48       100167.61       100151.55       100164.63       100166.15        100162.2       100172.92       100178.48       100168.24       100189.64       100167.19
    0.015854945        100160.1       100161.65       100132.94       100134.17       100184.32        100148.1       100167.69       100177.65       100167.87       100151.58       100164.64       100166.24       100162.14       100172.18       100178.52       100168.27       100189.69       100167.17
    0.015860075       100160.17        100162.3       100133.45        100133.5       100184.58       100148.09       100167.42       100177.83       100168.19       100151.64       100164.68       100166.33       100162.11       100171.42       100178.58       100168.33       100189.76       100167.16
    0.015865138       100160.22       100162.93       100133.75       100132.84       100184.83       100148.03       100167.15       100178.02       100168.47       100151.68        100164.7       100166.43       100162.08       100170.65       100178.65       100168.42       100189.83       100167.16
    0.015870167       100160.26       100163.54       100133.95       100132.21       100185.06          100148       100166.89       100178.14       100168.75       100151.71       100164.72        100166.5       100162.03       100169.85        100178.7       100168.44       100189.92       100167.15
    0.015875206       100160.29       100164.14       100134.05       100131.56       100185.27       100147.96       100166.62       100178.26       100169.02       100151.75       100164.72       100166.56       100161.98       100169.05       100178.76       100168.53       100189.97       100167.14
    0.015880309       100160.33       100164.75       100134.19       100130.93       100185.49       100147.96       100166.36       100178.39        100169.3       100151.78       100164.74       100166.63       100161.93       100168.28       100178.84       100168.61       100190.04       100167.16
    0.015885515       100160.36       100165.34        100134.4       100130.28       100185.68       100147.94       100166.07       100178.48       100169.63        100151.8       100164.73       100166.68       100161.87       100167.51        100178.9       100168.74       100190.09       100167.15
    0.015890895       100160.34       100165.91       100134.72       100129.63       100185.83       100147.89       100165.75       100178.51       100169.87       100151.79       100164.67       100166.66       100161.76       100166.79       100178.91       100168.79       100190.14       100167.12
    0.015896563       100160.33       100166.51       100135.27       100128.93       100185.99       100147.83       100165.44       100178.55       100170.12       100151.78       100164.64       100166.68       100161.66       100166.15       100178.99       100168.91        100190.2       100167.12
     0.01590266       100160.34       100167.17       100136.06       100128.23       100186.17       100147.83       100165.11       100178.56       100170.44       100151.79        100164.6       100166.69       100161.58       100165.68       100179.07       100169.04       100190.29       100167.12
    0.015909353       100160.35       100167.88       100137.18       100127.54       100186.36       100147.79       100164.77       100178.53       100170.78       100151.78       100164.57       100166.71       100161.47       100165.39        100179.2       100169.21       100190.38       100167.14
    0.015916772       100160.79       100169.08       100138.95       100127.25       100186.98       100148.26       100164.79       100178.89       100171.58        100152.2       100164.95       100167.14       100161.78       100165.73       100179.72       100169.82       100190.91       100167.57
     0.01592452       100160.79       100169.89       100140.42       100126.59       100187.18       100148.25       100164.33       100178.75       100171.97       100152.16       100164.89       100167.15       100161.65       100165.85        100179.8       100170.12       100190.98       100167.56
    0.015932271       100160.59       100170.46       100141.57       100125.75       100187.14       100148.04       100163.64       100178.35       100172.15        100151.9       100164.61       100166.93        100161.3       100165.84       100179.68       100170.12       100190.86       100167.32
    0.015939987       100160.48       100171.12        100142.7       100125.23       100187.19       100147.92       100163.06       100177.97       100172.36       100151.73       100164.42        100166.8       100161.04       100165.93       100179.64       100170.27        100190.8       100167.14
    0.015947547       100160.63       100172.01        100143.9       100125.02       100187.47       100148.11       100162.78       100177.87       100172.81       100151.81        100164.5       100166.93       100161.05       100166.25       100179.88       100170.66       100190.98       100167.21
    0.015954774       100160.51       100172.58       100144.64       100124.77       100187.47       100148.03       100162.25       100177.47       100172.94       100151.63        100164.3       100166.77       100160.78       100166.21       100179.83       100170.79       100190.87       100166.98
    0.015961776       100160.55       100173.28        100145.4       100124.69       100187.61        100148.1       100161.92       100177.26       100173.18       100151.61       100164.26       100166.77       100160.69       100166.26       100179.96       100171.16       100190.93        100166.9
    0.015968662       100160.68       100174.04       100146.14        100124.9       100187.81       100148.25       100161.68       100177.15       100173.45       100151.67       100164.32       100166.84       100160.68       100166.37       100180.12       100171.54       100191.05       100166.89
    0.015975532       100160.84       100174.81       100146.84       100125.19       100188.03       100148.45       100161.51       100177.07       100173.73       100151.78       100164.41       100166.95        100160.7       100166.49       100180.42       100171.95       100191.19       100166.93
     0.01598245       100161.02       100175.57       100147.47       100125.67       100188.22       100148.71       100161.39       100177.02       100173.98       100151.91       100164.51       100167.06       100160.76        100166.6        100180.7       100172.45       100191.36       100166.95
    0.015989466       100161.13       100176.28       100148.02        100126.1       100188.36       100148.92        100161.2       100176.95       100174.19       100151.98       100164.57       100167.12       100160.77       100166.66          100181       100172.92       100191.47       100166.92
    0.015996614       100161.42       100177.15        100148.7       100126.87       100188.63       100149.34       100161.23       100177.02       100174.48       100152.23       100164.82       100167.36       100160.95       100166.87       100181.46       100173.54       100191.73       100167.06
    0.016003748       100161.45       100177.75       100149.09       100127.38       100188.62       100149.58       100161.02       100176.86       100174.53       100152.24        100164.8       100167.34       100160.89       100166.76        100181.6        100173.9       100191.73       100166.91
     0.01601078       100161.54       100178.42       100149.52       100128.03       100188.67       100149.88       100160.86       100176.79       100174.65       100152.32       100164.87       100167.39       100160.91       100166.75       100181.81       100174.35       100191.83       100166.86
    0.016017656       100161.56       100178.98       100149.86       100128.62       100188.62       100150.15       100160.68       100176.67       100174.62       100152.33       100164.88       100167.38       100160.86        100166.6       100181.98       100174.67       100191.84       100166.71
     0.01602441       100161.58       100179.55       100150.19       100129.26       100188.56       100150.39       100160.53       100176.58       100174.61       100152.36        100164.9       100167.39       100160.84       100166.43        100182.1       100174.93       100191.84       100166.59
    0.016031068       100161.64       100180.13       100150.51        100129.9        100188.5       100150.71        100160.5       100176.54       100174.63       100152.43       100164.96       100167.42       100160.85       100166.26       100182.25       100175.27       100191.87       100166.48
    0.016037652       100161.69       100180.69       100150.83       100130.53       100188.41       100151.05        100160.5       100176.55       100174.62        100152.5       100165.03       100167.46       100160.87       100166.09       100182.37       100175.54        100191.9       100166.39
    0.016044181       100161.74       100181.23       100151.13       100131.15       100188.27       100151.42       100160.59       100176.58        100174.6       100152.58        100165.1       100167.49        100160.9       100165.95       100182.45       100175.78       100191.91       100166.27
    0.016050668        100161.8       100181.77       100151.42       100131.72        100188.1       100151.78       100160.58       100176.63       100174.51       100152.67       100165.19       100167.53       100160.94        100165.8       100182.62       100176.04        100191.9       100166.19
    0.016057126       100161.84       100182.28       100151.68       100132.33       100187.88       100152.12       100160.59       100176.67       100174.42       100152.74       100165.26       100167.56       100160.97       100165.69       100182.79       100176.27       100191.89       100166.09
    0.016063562       100161.88       100182.78       100151.94       100132.82       100187.61       100152.53       100160.61       100176.73       100174.29       100152.83       100165.34       100167.59          100161        100165.6       100182.87       100176.48       100191.85          100166
    0.016069982       100161.92       100183.24       100152.18       100133.33        100187.3        100152.9       100160.64       100176.77       100174.12       100152.91       100165.41       100167.61       100161.03       100165.54       100182.91       100176.66        100191.8       100165.88
    0.016076391       100161.95        100183.7       100152.41       100133.79       100186.92       100153.26       100160.68       100176.79       100173.92       100152.98       100165.48       100167.63       100161.05       100165.56       100182.98       100176.87       100191.72       100165.78
     0.01608279       100161.97       100184.14       100152.63       100134.23        100186.5       100153.62       100160.68       100176.76       100173.69       100153.03       100165.54       100167.62       100161.07        100165.6       100183.11       100177.04       100191.62       100165.65