# Probe 0 (0 0.005 0)
# Probe 1 (-0.01 -0.005 0)
# Probe 2 (0.01 -0.005 0)
# Probe 3 (0 -0.005 0.01)
# Probe 4 (0 -0.005 -0.01)
# Probe 5 (-0.01 0.005 0)
# Probe 6 (0.01 0.005 0)
# Probe 7 (0 0.005 0.01)
# Probe 8 (0 0.005 -0.01)
# Probe 9 (-0.005 0.005 0)
# Probe 10 (0.005 0.005 0)
# Probe 11 (0 0.005 0.005)
# Probe 12 (0 0.005 -0.005)
# Probe 13 (-0.01 0.015 0)
# Probe 14 (0.01 0.015 0)
# Probe 15 (0 0.015 0.01)
# Probe 16 (0 0.015 -0.01)
# Probe 17 (0 0.015 0)
#         Probe               0               1               2               3               4               5               6               7               8               9              10              11              12              13              14              15              16              17
#          Time
    0.011170694       100151.62       100151.45       100157.75       100156.64       100143.11       100175.78        100149.7       100178.11       100171.35       100156.56       100110.21       100168.74       100150.21       100178.26       100159.97       100195.81       100170.31       100169.03
    0.011173742       100151.81        100151.8        100157.7       100156.63       100143.29       100175.88       100149.71       100177.97       100171.43       100156.68       100110.53       100168.83       100150.17       100178.28       100159.91       100195.76       100170.28       100169.03
    0.011176861       100152.03       100152.18       100157.65       100156.64       100143.51       100175.96       100149.75       100177.85       100171.58       100156.38       100110.88       100168.93       100150.11       100178.29       100159.87       100195.74       100170.27       100169.03
    0.011180057       100152.26       100152.58       100157.57       100156.64        100143.7       100176.08       100149.78       100177.84       100171.69       100156.13       100111.23       100169.02        100150.1        100178.3       100159.79       100195.71       100170.25       100169.03
    0.011183331       100152.48       100152.97       100157.47       100156.66       100143.91       100176.12       100149.82       100177.74       100171.83       100155.91       100111.59       100169.14       100150.05       100178.32       100159.72       100195.66       100170.23       100169.03
     0.01118668       100152.76       100153.46       100157.41       100156.74       100144.13       100176.24       100149.93       100177.69       100171.97        100155.7       100112.03       100169.31       100150.13        100178.4       100159.73       100195.68       100170.27        100169.1
    0.011190061       100152.88       100153.77       100157.17       100156.66       100144.28       100176.16       100149.89       100177.47       100171.97       100155.41       100112.33       100169.35       100150.02       100178.31       100159.57       100195.56       100170.15          100169
    0.011193457       100153.05       100154.15       100156.95       100156.64       100144.42       100176.16       100149.89       100177.34       100172.07       100155.25       100112.64       100169.46       100149.96       100178.29       100159.47       100195.43       100170.09       100168.95
    0.011196862       100153.16       100154.49       100156.67        100156.6       100144.54       100176.04       100149.87       100177.16       100172.06       100155.06       100112.96       100169.52       100149.88       100178.24       100159.33       100195.32       100169.99       100168.88
     0.01120028       100153.27       100154.86       100156.39       100156.62        100144.7       100176.01        100149.9       100177.05       100172.19       100154.93        100113.3       100169.62       100149.84       100178.21       100159.22       100195.23       100169.94       100168.83
    0.011203713        100153.4       100155.24       100156.09       100156.65       100144.87       100175.93       100149.96       100176.96        100172.3       100154.92       100113.69       100169.72       100149.83       100178.21       100159.15       100195.13        100169.9       100168.81
    0.011207151       100153.48       100155.59       100155.75       100156.67       100145.01       100175.85       100150.01       100176.84       100172.37       100154.84       100114.03        100169.8       100149.78        100178.2       100159.03       100195.03       100169.84       100168.77
    0.011210601       100153.58       100155.96        100155.4       100156.69       100145.19       100175.73       100150.07       100176.75       100172.52       100154.85       100114.42       100169.89       100149.74        100178.2       100158.95       100194.94       100169.81       100168.74
    0.011214072       100153.64       100156.32       100155.03       100156.69       100145.38        100175.6       100150.17       100176.74       100172.52       100154.86       100114.82       100169.97       100149.72       100178.22       100158.87       100194.86       100169.77       100168.73
    0.011217571       100153.76       100156.73       100154.69       100156.69       100145.63       100175.43       100150.34       100176.74        100172.6       100155.09       100115.26       100170.08       100149.75       100178.29       100158.83       100194.83       100169.79       100168.76
    0.011221088       100153.82       100157.07       100154.28       100156.61       100145.83       100175.21       100150.45       100176.72       100172.65       100155.19       100115.65       100170.14       100149.72        100178.3       100158.74       100194.75       100169.76       100168.75
     0.01122463       100153.93       100157.45       100153.91        100156.5       100146.07       100175.05       100150.62       100176.73       100172.73       100155.39       100116.09       100170.22       100149.75       100178.37        100158.7        100194.7       100169.77       100168.77
    0.011228182       100153.96       100157.76       100153.49       100156.31       100146.27       100174.77       100150.76       100176.77       100172.67       100155.58       100116.47       100170.24       100149.74       100178.37        100158.6        100194.6       100169.73       100168.75
    0.011231747       100154.01       100158.07        100153.1       100156.12       100146.49       100174.47       100150.92       100176.77       100172.49       100155.77       100116.86       100170.26       100149.71       100178.39        100158.5        100194.5        100169.7       100168.73
     0.01123533       100154.04       100158.36       100152.76       100155.95       100146.71       100174.15       100151.06        100176.8       100172.31       100155.95       100117.25        100170.2       100149.67       100178.42       100158.42       100194.41       100169.67       100168.71
     0.01123894       100154.12       100158.65       100152.49       100155.84       100146.97       100173.84       100151.21       100176.86       100172.08        100156.1       100117.66       100170.14       100149.65       100178.46       100158.35       100194.33       100169.67       100168.71
    0.011242587       100154.16       100158.94       100152.28       100155.77       100147.22       100173.45       100151.39       100176.91       100171.77       100156.28       100118.07       100170.12       100149.65       100178.52       100158.29       100194.27       100169.67       100168.73
     0.01124628       100154.25       100159.22       100152.18       100155.78       100147.51       100173.08       100151.57       100177.01       100171.28       100156.52       100118.51       100170.04       100149.65       100178.59       100158.22       100194.23       100169.69       100168.76
     0.01125001        100154.3       100159.46       100152.15       100155.78       100147.77       100172.68       100151.71       100177.02       100170.79       100156.67       100118.92       100169.61       100149.64       100178.62       100158.14       100194.14       100169.67       100168.75
    0.011253782       100154.35       100159.69       100152.21       100155.79       100148.04       100172.22       100151.82       100177.08       100170.21       100156.78       100119.33       100169.23       100149.59       100178.67       100158.07       100194.04       100169.67       100168.75
    0.011257603        100154.4       100159.92       100152.37        100155.8       100148.31       100171.78       100151.94        100177.1        100169.7       100156.78       100119.72       100168.86       100149.59       100178.72       100157.92       100193.96       100169.67       100168.75
    0.011261481       100154.42        100160.1       100152.62       100155.79       100148.57       100171.25       100152.03       100177.06       100169.03        100156.7       100120.09       100168.41       100149.54       100178.76       100157.83       100193.85       100169.64       100168.74
    0.011265421       100154.54       100160.36       100153.03       100155.85        100148.9       100170.81       100152.19       100177.13       100168.28       100156.71       100120.54       100168.01        100149.6       100178.88       100157.82       100193.83       100169.72       100168.82
    0.011269389       100154.53       100160.47       100153.36       100155.77       100149.11       100170.18       100152.22       100177.03       100167.58       100156.49       100120.85       100167.45       100149.52       100178.89       100157.68       100193.69       100169.66       100168.76
    0.011273382       100154.51       100160.56       100153.73       100155.68        100149.3        100169.5       100152.24        100176.9       100166.77        100156.2       100121.15       100166.77        100149.4       100178.87       100157.54       100193.52       100169.61       100168.71
    0.011277414       100154.58       100160.73       100154.17       100155.68       100149.57       100168.82       100152.35       100176.84       100165.98          100156       100121.53       100166.15       100149.44       100178.95       100157.48       100193.44       100169.63       100168.73
    0.011281468        100154.6       100160.82       100154.54       100155.64       100149.79       100168.16       100152.42       100176.77       100165.15       100155.65       100121.86       100165.38       100149.37       100178.99        100157.4       100193.32       100169.62       100168.72
    0.011285537        100154.6       100160.88       100154.83       100155.57       100149.98       100167.33       100152.48       100176.57       100164.32        100155.3       100122.15       100164.58       100149.31       100178.99       100157.28       100193.18       100169.58       100168.67
    0.011289641       100154.63       100160.96       100155.05       100155.52       100150.18       100166.48       100152.56       100176.53       100163.52       100154.98       100122.47       100163.64       100149.27       100179.03       100157.16       100193.05       100169.57       100168.66
    0.011293796       100154.72       100161.08       100155.25       100155.53       100150.45       100165.68       100152.72       100176.58        100162.7        100154.7       100122.85        100162.8       100149.28       100179.12       100157.14          100193       100169.62       100168.71
    0.011297966        100154.8       100161.19       100155.32       100155.51       100150.69       100164.79       100152.84       100176.23       100162.01       100154.59       100123.21       100161.89       100149.29        100179.2        100157.1       100192.91       100169.67       100168.75
    0.011302109       100154.79       100161.22       100155.19        100155.4       100150.84       100163.87       100152.91       100175.93       100161.18       100154.34       100123.48       100160.84       100149.22        100179.2          100157       100192.76       100169.63        100168.7
    0.011306191       100154.81       100161.28       100155.04       100155.31       100151.03        100162.9          100153       100175.73       100160.48       100154.17       100123.78       100159.85       100149.18       100179.22       100156.94       100192.62       100169.62       100168.68
    0.011310192       100154.78       100161.29       100154.78       100155.17       100151.17       100161.96       100153.07       100175.39        100159.8       100153.89       100124.03       100158.79       100149.09        100179.2       100156.79       100192.46       100169.57       100168.62
     0.01131411       100154.78       100161.34       100154.51       100155.05       100151.34       100160.99       100153.18       100175.12       100158.79       100153.71       100124.31       100157.81       100149.08        100179.2       100156.74       100192.31       100169.57        100168.6
    0.011317949       100154.81       100161.41       100154.24       100154.94       100151.53       100160.14        100153.3       100174.92       100158.82       100153.52       100124.62       100156.91       100149.07       100179.23       100156.69        100192.2       100169.58        100168.6
    0.011321715       100154.86        100161.5       100153.98       100154.83       100151.73       100159.34       100153.46        100174.6       100158.49       100153.44       100124.94       100156.07       100149.08       100179.27       100156.67       100192.11        100169.6       100168.61
    0.011325419       100154.91        100161.6       100153.72       100154.74       100151.94       100158.57       100153.65       100174.34       100158.24       100153.26        100125.3       100155.37       100149.12       100179.31       100156.65       100192.04       100169.63       100168.64
    0.011329069       100154.98        100161.7       100153.45       100154.63       100152.16       100157.85       100153.87        100174.1       100157.98       100153.39       100125.67       100154.59       100149.14       100179.36       100156.65       100191.96       100169.68       100168.68
    0.011332676       100155.05        100161.8       100153.17       100154.51       100152.38       100157.19       100154.07       100173.88       100157.89       100153.56       100126.06       100153.87       100149.19       100179.41       100156.64       100191.89       100169.73       100168.71
    0.011336248       100155.13       100161.94       100152.91       100154.41        100152.6       100156.57       100154.29       100173.59       100157.92       100153.75       100126.47        100153.4       100149.22       100179.47       100156.63       100191.84       100169.77       100168.76
    0.011339793       100155.24       100162.09       100152.63        100154.3       100152.84       100156.03       100154.52       100173.34          100158       100154.14        100126.9       100152.94       100149.28       100179.53       100156.64        100191.8       100169.86       100168.82
    0.011343318       100155.33       100162.28       100152.34       100154.17       100153.06        100155.5       100154.76        100173.1       100158.02       100154.45       100127.34        100152.5       100149.31       100179.58       100156.67       100191.74       100169.91       100168.87
    0.011346827       100155.41       100162.49       100152.05       100154.04       100153.28       100154.95          100155       100172.83        100158.1       100154.84        100127.8       100152.15       100149.33        100179.6       100156.69       100191.69       100169.97       100168.92
    0.011350324       100155.49       100162.65       100151.74       100153.89       100153.49       100154.43       100155.23       100172.55       100158.23       100154.83       100128.28        100151.8       100149.37       100179.63       100156.72       100191.63       100170.01       100168.96
    0.011353811       100155.58       100162.87       100151.42       100153.73        100153.7       100153.94       100155.44       100172.27       100158.39       100154.89       100128.78       100151.51       100149.36       100179.65       100156.71       100191.57       100170.04       100168.99
    0.011357291       100155.65       100163.03        100151.1       100153.56        100153.9       100153.44       100155.65       100171.97       100158.67       100155.47       100129.28       100151.22       100149.36       100179.67       100156.72        100191.5       100170.09       100169.02
    0.011360767       100155.72       100163.15       100150.75       100153.39        100154.1       100152.98       100155.86       100171.67       100158.85       100155.27       100129.81       100150.89       100149.36       100179.66       100156.74       100191.44       100170.13       100169.05
    0.011364238        100155.8       100163.27       100150.43       100153.22       100154.29       100152.54       100156.04       100171.38        100159.1       100155.81       100130.36       100150.68       100149.36       100179.67       100156.76       100191.37       100170.17       100169.08
    0.011367706       100155.86       100163.41       100150.06       100153.02       100154.47       100152.06        100156.2       100171.04       100159.33       100156.22       100130.89       100150.46       100149.34       100179.64       100156.76        100191.3        100170.2       100169.09
    0.011371172       100155.94       100163.54       100149.69       100152.83       100154.65       100151.65       100156.37       100170.72       100159.54       100156.86       100131.44       100150.22       100149.36        100179.6       100156.75       100191.22       100170.23       100169.11
     0.01137464       100155.99       100163.66       100149.31       100152.62       100154.81        100151.2       100156.49       100170.38       100159.68       100157.59          100132       100150.01        100149.3       100179.56       100156.75       100191.13       100170.24       100169.11
    0.011378097       100156.08       100163.81       100148.97       100152.45          100155       100150.85       100156.65        100170.1       100159.98       100158.16       100132.59       100149.83       100149.31       100179.55       100156.79       100191.07       100170.28       100169.15
    0.011381533       100156.13       100163.93       100148.57       100152.23       100155.14       100150.48       100156.75        100169.8       100160.12       100159.25       100133.14       100149.62       100149.26       100179.49        100156.8       100190.98       100170.29       100169.15
     0.01138495       100156.19       100164.08       100148.19       100152.02       100155.28       100150.11       100156.85       100169.51       100160.37       100159.94       100133.73       100149.43       100149.22       100179.44       100156.81       100190.89        100170.3       100169.15
    0.011388353       100156.23       100164.25        100147.8       100151.81       100155.43       100149.84       100156.92       100169.26       100160.44       100160.87       100134.31       100149.23       100149.14       100179.38       100156.82       100190.81       100170.31       100169.16
    0.011391743       100156.31       100164.43       100147.42        100151.6       100155.56       100149.56       100156.98       100169.04       100160.54        100161.6       100134.91       100149.03       100149.09       100179.33       100156.85       100190.74       100170.35       100169.17
    0.011395123       100156.37       100164.65       100147.03       100151.38        100155.7       100149.35       100157.09       100168.87       100160.67       100163.03       100135.51       100148.83       100149.04       100179.27       100156.85       100190.67       100170.36       100169.19
    0.011398496       100156.44       100164.91       100146.68       100151.18       100155.84       100149.17       100157.15       100168.73       100160.74       100163.93       100136.14       100148.65       100148.97       100179.23       100156.91       100190.62        100170.4       100169.22
    0.011401864       100156.52       100165.18       100146.28       100150.96       100155.96       100149.06       100157.19        100168.6       100160.77       100164.69       100136.76       100148.46       100148.97       100179.16       100156.91       100190.55       100170.42       100169.24
    0.011405231       100156.56       100165.49       100145.91       100150.74       100156.07       100148.94       100157.24       100168.53       100160.78       100165.72       100137.38       100148.23       100148.84       100179.09       100156.95       100190.48       100170.44       100169.25
    0.011408599       100156.63       100165.83       100145.51       100150.51       100156.17       100148.91       100157.26       100168.45       100160.73       100166.58       100138.01          100148       100148.77       100179.04       100156.97       100190.42       100170.46       100169.28
    0.011411972       100156.69        100166.2       100145.15       100150.29       100156.27       100148.87       100157.28       100168.42       100160.69       100167.38       100138.63       100147.77       100148.68       100178.97       100156.99       100190.36       100170.49        100169.3
    0.011415354       100156.75        100166.6       100144.77       100150.07       100156.36       100148.91       100157.27       100168.36       100160.55       100168.21       100139.25       100147.54       100148.58       100178.92       100157.01        100190.3       100170.51       100169.33
    0.011418747        100156.8       100167.03       100144.41       100149.85       100156.46       100148.96       100157.28       100168.32       100160.47       100168.83       100139.88       100147.28       100148.48       100178.85       100157.04       100190.25       100170.54       100169.36
    0.011422155       100156.85       100167.46       100144.04       100149.62       100156.54       100149.01       100157.26       100168.27       100160.39       100169.57       100140.49       100147.05       100148.37       100178.79       100157.05        100190.2       100170.56       100169.38
    0.011425581       100156.89       100167.91       100143.68       100149.39       100156.62        100149.1       100157.24        100168.2       100160.23       100170.14        100141.1       100146.78       100148.24       100178.71       100157.06       100190.14       100170.57       100169.39
    0.011429027       100156.93       100168.38       100143.31       100149.15       100156.69       100149.21       100157.17        100168.1       100160.05       100170.63       100141.69        100146.5       100148.16       100178.64       100157.06       100190.06       100170.58       100169.41
    0.011432497       100156.96       100168.85       100142.94       100148.93       100156.76       100149.33       100157.13       100167.98       100159.92       100170.97       100142.29        100146.2       100148.01       100178.55       100157.11       100190.01       100170.59       100169.43
    0.011435992          100157       100169.34        100142.6        100148.7       100156.83       100149.44       100157.07       100167.85       100159.74       100171.28       100142.88       100145.93       100147.92       100178.46       100157.11       100189.96       100170.61       100169.46
    0.011439515       100157.04       100169.84       100142.21       100148.48       100156.91       100149.59          100157       100167.69        100159.6       100171.56       100143.47       100145.64       100147.81       100178.37       100157.12       100189.91       100170.62       100169.48
    0.011443068       100157.07       100170.34       100141.83       100148.26       100156.97       100149.71       100156.94       100167.49       100159.42       100171.69       100144.02       100145.31       100147.73       100178.28       100157.15       100189.86       100170.65       100169.51
    0.011446653       100157.07       100170.82       100141.51       100148.03          100157       100149.84       100156.86       100167.26       100159.18       100171.66       100144.58       100144.99       100147.56       100178.18       100157.15       100189.81       100170.66       100169.53
     0.01145027        100157.1       100171.32       100141.12       100147.81       100157.03       100149.97       100156.76       100167.02       100159.13       100171.47       100145.13       100144.69       100147.47       100178.08       100157.18       100189.75       100170.67       100169.55
    0.011453923        100157.1       100171.81       100140.77       100147.59       100157.04        100150.1       100156.66       100166.79       100158.99        100171.2       100145.67       100144.36       100147.34       100177.97       100157.18       100189.71       100170.67       100169.58
    0.011457613       100157.15       100172.29       100140.42       100147.37       100157.03       100150.22       100156.59        100166.5        100158.8       100170.87        100146.2       100144.02       100147.23       100177.86        100157.2       100189.66       100170.68        100169.6
     0.01146134       100157.17       100172.78       100139.98       100147.17          100157       100150.33        100156.5       100166.23       100158.71       100170.38       100146.72       100143.68        100147.1       100177.72       100157.21       100189.62        100170.7       100169.63
    0.011465108       100157.17       100173.25       100139.54       100146.95       100156.93       100150.42       100156.39       100165.93       100158.54       100169.93       100147.22       100143.28       100146.98       100177.58       100157.23       100189.57       100170.69       100169.66
    0.011468916       100157.19       100173.71       100139.11       100146.72       100156.84       100150.47       100156.28       100165.62       100158.34       100169.33       100147.69       100142.95       100146.83       100177.42       100157.24       100189.53       100170.68       100169.68
    0.011472769       100157.21       100174.17       100138.65       100146.51       100156.74       100150.53       100156.19       100165.28       100158.12       100168.78       100148.15       100142.58        100146.7       100177.29       100157.27       100189.49        100170.7       100169.72
    0.011476666       100157.25       100174.61       100138.19       100146.31       100156.61       100150.53       100156.08       100164.94       100157.97       100168.36       100148.62       100142.23       100146.57       100177.13        100157.3       100189.46       100170.71       100169.76
    0.011480611       100157.26       100175.03       100137.72       100146.09       100156.46       100150.54       100155.98       100164.54       100157.84       100167.86       100149.06       100141.87       100146.46       100176.95       100157.31       100189.42        100170.7       100169.78
    0.011484605       100157.25       100175.43       100137.22       100145.87       100156.28       100150.51       100155.86       100164.15        100157.5       100167.54       100149.48       100141.42       100146.33       100176.83       100157.32       100189.38       100170.69       100169.81
     0.01148865       100157.28       100175.82       100136.75       100145.66       100156.09       100150.51       100155.78       100163.75       100157.29       100167.41       100149.91       100141.07       100146.23       100176.67       100157.34       100189.36       100170.71       100169.85
    0.011492749       100157.29       100176.19       100136.25       100145.45       100155.89       100150.51       100155.67       100163.31       100157.09       100167.21        100150.3       100140.71       100146.15        100176.5       100157.39       100189.33        100170.7       100169.89
    0.011496904       100157.32       100176.54       100135.79       100145.23       100155.68       100150.53       100155.59       100162.87       100156.84       100167.23        100150.7       100140.37        100146.1       100176.33       100157.41       100189.31        100170.7       100169.94
    0.011501118       100157.28       100176.86       100135.33       100145.01       100155.45       100150.55       100155.49        100162.4       100156.66       100167.19       100151.05       100140.01       100146.05       100176.15       100157.43       100189.28        100170.7       100169.97
    0.011505394       100157.33       100177.16       100134.91       100144.79       100155.23       100150.59       100155.42       100161.96        100156.4       100167.22        100151.4       100139.74       100146.07       100175.87        100157.5       100189.27       100170.71       100170.01
    0.011509737       100157.33       100177.43       100134.49       100144.54       100154.98       100150.67       100155.34       100161.46       100156.21       100167.36       100151.71        100139.4       100146.07       100175.84       100157.51       100189.23       100170.69       100170.04
     0.01151415       100157.36       100177.69       100134.11       100144.31       100154.77       100150.75       100155.28       100161.02       100155.85       100167.26       100152.02       100139.23       100146.18       100175.65       100157.57       100189.22       100170.69       100170.09
    0.011518643       100157.36       100177.92       100133.75       100144.04       100154.55        100150.9       100155.22       100160.57       100155.68       100167.25       100152.28          100139       100146.26       100175.48       100157.61        100189.2       100170.68       100170.12