# Probe 0 (0 0.005 0)
# Probe 1 (-0.01 -0.005 0)
# Probe 2 (0.01 -0.005 0)
# Probe 3 (0 -0.005 0.01)
# Probe 4 (0 -0.005 -0.01)
# Probe 5 (-0.01 0.005 0)
# Probe 6 (0.01 0.005 0)
# Probe 7 (0 0.005 0.01)
# Probe 8 (0 0.005 -0.01)
# Probe 9 (-0.005 0.005 0)
# Probe 10 (0.005 0.005 0)
# Probe 11 (0 0.005 0.005)
# Probe 12 (0 0.005 -0.005)
# Probe 13 (-0.01 0.015 0)
# Probe 14 (0.01 0.015 0)
# Probe 15 (0 0.015 0.01)
# Probe 16 (0 0.015 -0.01)
# Probe 17 (0 0.015 0)
#         Probe               0               1               2               3               4               5               6               7               8               9              10              11              12              13              14              15              16              17
#          Time
  5.9515741e-06       100126.82       100060.65       100079.83       100143.84       100145.42        100117.6       100133.91       100097.54       100107.65       100110.24       100141.02       100115.73       100122.87       100160.33       100134.15       100123.65       100134.55       100129.71
  1.1899187e-05       100124.05       100063.31       100073.73       100140.81       100142.25       100114.83       100129.07       100095.26       100105.21       100107.42       100138.25       100113.12       100120.22       100158.54       100131.57       100121.23       100132.13       100127.07
  1.7839855e-05       100122.96       100067.72       100069.06       100139.48        100140.7       100113.69       100126.14       100094.68       100104.43       100106.25       100137.13       100112.19       100119.25        100158.3       100130.64       100120.39       100131.38        100126.1
  2.3776906e-05       100122.24       100072.18       100064.48       100138.53       100139.49       100112.86       100123.78       100094.48       100104.01       100105.43       100136.37       100111.61       100118.62        100158.4       100130.03       100119.89       100130.93       100125.47
  2.9713969e-05       100121.78       100076.51       100059.93       100137.88        100138.5       100112.25       100121.81       100094.56       100103.87       100104.91       100135.86        100111.3       100118.25       100158.65       100129.66       100119.63       100130.71        100125.1
  3.5654787e-05       100121.52        100080.3       100055.41        100137.5       100137.66       100111.81       100120.16       100094.85       100103.94       100104.57       100135.55       100111.19       100118.08       100159.06       100129.45       100119.53       100130.66       100124.92
  4.1600438e-05       100121.39       100082.27       100050.92       100137.31       100136.88       100111.45       100118.61        100095.3       100104.13       100104.37       100135.37       100111.22       100118.04       100159.66       100129.33       100119.54       100130.73       100124.87
  4.7554345e-05       100121.36       100083.32        100046.4        100137.3       100136.16       100111.16       100117.11       100095.88       100104.42       100104.26       100135.27       100111.33       100118.09       100160.08       100129.26       100119.61       100130.82       100124.89
  5.3521133e-05       100121.36       100083.77       100041.76        100137.4       100135.43       100110.88       100115.58       100096.47       100104.73       100104.19       100135.21       100111.48       100118.11       100160.57        100129.2       100119.73       100130.99       100124.94
  5.9505648e-05        100121.4       100083.17       100036.93       100137.58       100134.68       100110.63       100114.08       100097.13       100105.12       100104.16       100135.18       100111.66       100118.23       100161.13       100129.16       100119.89       100131.15       100125.04
  6.5512799e-05       100121.47       100082.71       100031.85       100137.82       100133.95       100110.38       100112.62       100097.85       100105.51       100104.16       100135.18       100111.89       100118.37       100161.71       100129.12       100120.04       100131.34       100125.17
  7.1547377e-05       100121.55        100082.4       100026.52       100138.04       100133.19       100110.13       100111.14       100098.56       100105.95       100104.15       100135.19       100112.12       100118.51       100162.14       100129.07       100120.24       100131.52        100125.3
  7.7613871e-05       100121.65       100082.22          100021       100138.24       100132.45       100109.92       100109.67       100099.32       100106.39       100104.16        100135.2       100112.37       100118.69       100162.66       100129.03       100120.47       100131.73       100125.44
  8.3716292e-05       100121.76       100081.75       100015.44       100138.41        100131.7       100109.71       100108.25        100100.1       100106.82       100104.17       100135.23       100112.63       100118.81       100163.12       100128.99       100120.66       100131.83       100125.59
  8.9857993e-05       100121.85       100080.82       100009.94       100138.51       100130.94        100109.5       100106.84       100100.87       100107.23       100104.14       100135.23       100112.87       100118.95       100163.44       100128.94       100120.85       100131.94       100125.72
  9.6041566e-05       100121.96       100079.12       100004.54       100138.59       100130.17       100109.37       100105.63       100101.65       100107.68       100104.14       100135.23       100113.12       100119.12       100163.77       100128.91       100121.04       100131.99       100125.86
   0.0001022688       100122.05       100076.89       99999.528       100138.66       100129.38       100109.23       100104.64       100102.45       100108.12        100104.1       100135.21       100113.37       100119.27       100164.11       100128.87       100121.27       100132.06       100125.99
  0.00010854071       100122.11       100074.47       99995.157       100138.67       100128.58       100109.11       100103.96        100103.2       100108.52       100104.04       100135.17       100113.58       100119.37       100164.22       100128.85       100121.42       100132.07        100126.1
   0.0001148577       100122.19       100072.09       99991.281       100138.69        100127.8       100109.01       100103.68       100103.97       100108.95       100103.98       100135.12       100113.81        100119.5       100164.38       100128.84        100121.6       100132.04       100126.22
  0.00012121967       100122.25       100070.03       99988.189       100138.71          100127       100108.92        100103.8       100104.73       100109.34       100103.88       100135.05       100114.01        100119.6       100164.21       100128.84        100121.8       100131.98       100126.31
  0.00012762633       100122.32       100068.36       99986.129       100138.78       100126.25        100108.8       100104.31       100105.48       100109.75       100103.78       100134.99       100114.22       100119.71       100164.68       100128.86       100121.96       100131.92        100126.4
  0.00013407734       100122.36       100066.98        99984.87       100138.91       100125.48       100108.71       100105.27       100106.23        100110.2       100103.64       100134.88       100114.41       100119.81       100164.59       100128.88       100122.11       100131.76       100126.48
  0.00014057258       100122.43       100065.73       99984.713       100139.09       100124.82       100108.64        100106.6       100106.99       100110.65       100103.52        100134.8       100114.62       100119.92       100164.51       100128.94       100122.25       100131.67       100126.57
  0.00014711231       100122.48       100064.61       99985.548       100139.32       100124.12       100108.55        100108.2       100107.73        100111.1       100103.35       100134.69       100114.79       100119.99       100164.52          100129       100122.38       100131.48       100126.63
  0.00015369722       100122.54       100063.44       99987.412       100139.56       100123.41       100108.53       100110.03       100108.47       100111.56       100103.18       100134.58       100114.98       100120.09       100164.41       100129.09       100122.51       100131.26        100126.7
  0.00016032854       100122.59       100062.39       99989.955        100139.8       100122.68        100108.6       100112.03       100109.23       100112.11       100103.02       100134.45       100115.16       100120.17       100164.22       100129.22        100122.6       100130.99       100126.76
  0.00016700328       100122.66       100061.34       99993.351       100140.05       100121.84        100108.8       100114.07       100109.98       100112.63       100102.82       100134.34       100115.35       100120.28       100164.01       100129.38       100122.74       100130.74       100126.84
  0.00017370297       100122.69       100060.19       99997.279       100140.23       100120.82       100109.09       100116.15        100110.7       100113.16        100102.6       100134.19        100115.5       100120.34       100163.72       100129.54       100122.81       100130.46       100126.87
  0.00018042918       100122.74       100059.29       100001.49       100140.42       100119.56       100109.51       100118.17       100111.44       100113.72       100102.41       100134.04       100115.67       100120.42       100163.49        100129.7       100122.87       100130.07       100126.91
  0.00018718612       100122.73       100058.41       100005.84       100140.57       100118.04       100110.01       100120.16       100112.12       100114.27       100102.11       100133.84       100115.79       100120.45       100163.14       100129.86       100122.91       100129.72       100126.91
  0.00019397779       100122.76       100057.68       100010.33       100140.74       100116.28       100110.61        100122.1       100112.83        100114.9       100101.86       100133.66       100115.94       100120.51        100162.8       100130.07       100122.97       100129.28       100126.94
  0.00020080801        100122.8       100057.07       100014.82        100140.9       100114.27       100111.17       100123.94       100113.56       100115.51       100101.64       100133.49        100116.1       100120.58       100162.41       100130.28       100123.02       100128.91       100126.98
  0.00020768032        100122.8       100056.51       100019.44       100141.03       100112.01       100111.61       100125.67       100114.23       100116.13       100101.37       100133.29       100116.23       100120.63       100161.99       100130.49       100123.05       100128.45          100127
  0.00021459805        100122.8       100056.06       100024.27       100141.15       100109.55       100111.89       100127.28       100114.89       100116.77       100101.09       100133.09       100116.37       100120.68       100161.58       100130.72       100123.09       100127.95          100127
  0.00022156428       100122.81       100055.45       100029.45       100141.28       100107.06       100112.03       100128.82       100115.57       100117.45       100100.86        100132.9       100116.52       100120.73       100161.14       100130.98       100123.16       100127.42       100127.04
  0.00022858196       100122.77       100054.85       100034.86       100141.38       100104.58       100112.06       100130.19       100116.22       100118.13       100100.57       100132.66       100116.63       100120.76       100160.65       100131.21       100123.12        100126.8       100127.02
  0.00023565383       100122.75       100054.19       100040.48       100141.53       100102.17       100112.39       100131.36       100116.86       100118.73       100100.32       100132.45       100116.77       100120.81       100160.17       100131.49       100123.12       100126.21       100127.04
  0.00024278258        100122.7       100053.57       100046.17       100141.66       100099.76       100113.21       100132.16       100117.47       100119.36       100100.05       100132.23       100116.89       100120.85       100159.61       100131.76       100123.06       100125.52       100127.04
   0.0002499708       100122.64       100053.09       100051.85       100141.83       100097.31       100114.68       100132.55       100118.09       100120.02       100099.81       100131.99       100117.01       100120.89       100159.06       100132.04       100122.95       100124.95       100127.04
    0.000257108       100122.63       100052.77       100057.46       100142.11       100094.85       100116.78       100132.51       100118.74       100120.76       100099.65       100131.83        100117.2          100121       100158.44       100132.39        100122.9       100124.35       100127.11
   0.0002640788       100122.48       100052.38       100062.64       100142.29       100092.21       100119.03       100131.93       100119.24       100121.29       100099.37       100131.52       100117.26       100120.97       100157.67       100132.57       100122.71       100123.61       100127.03
   0.0002709325       100122.36          100052       100067.59       100142.56       100089.54       100120.78       100131.14       100119.73       100121.86       100099.17       100131.28       100117.35       100120.99       100156.93       100132.82       100122.53       100122.92       100127.01
  0.00027771611       100122.26       100051.57        100072.3       100142.93       100086.84       100121.79       100130.18       100120.25       100122.42       100099.02       100131.08       100117.47       100121.05       100156.16       100133.12       100122.33       100122.29       100127.02
  0.00028447289       100122.16       100051.01        100076.7       100143.35       100084.12       100122.01       100129.19       100120.76       100122.94       100098.89       100130.88        100117.6       100121.11       100155.38       100133.39       100122.13       100121.63       100127.03
  0.00029124228       100122.06       100050.34       100080.82       100143.82       100081.38       100121.47       100128.35       100121.27       100123.47       100098.82       100130.71       100117.74       100121.19       100154.57       100133.69       100121.91       100121.04       100127.07
  0.00029805747          100122       100049.69       100084.67        100144.4       100078.75       100120.51       100127.84       100121.82       100124.02       100098.82       100130.61       100117.94       100121.32       100153.78       100134.03       100121.66       100120.43       100127.15
  0.00030482433       100121.81       100048.89       100088.07       100144.89       100076.16       100119.14        100127.6       100122.21       100124.41       100098.64       100130.37       100118.02       100121.32       100152.86       100134.25       100121.32       100119.79       100127.13
  0.00031151232       100121.63       100048.12       100091.19       100145.37       100073.75       100117.69       100127.73       100122.61       100124.82        100098.5       100130.17        100118.1       100121.34       100151.86       100134.45       100120.95       100119.17       100127.11
  0.00031815618       100121.45       100047.38       100094.14       100145.85       100071.57       100116.29       100128.14       100122.99       100125.16       100098.38       100129.99       100118.19       100121.37       100150.84       100134.66       100120.63       100118.57        100127.1
   0.0003247871       100121.27       100046.66          100097        100146.3       100069.49       100115.22       100128.83       100123.36       100125.44       100098.35       100129.83       100118.29       100121.42       100149.78       100134.87       100120.18       100117.99       100127.12
  0.00033143297       100121.09       100045.94       100099.84       100146.76        100067.5       100114.55       100129.65       100123.71       100125.81       100098.28       100129.69        100118.4       100121.47       100148.71       100135.08       100119.78       100117.45       100127.13
   0.0003381182       100120.91       100045.28       100102.71       100147.15       100065.54       100114.31       100130.51       100124.07       100126.08       100098.22       100129.57        100118.5       100121.53       100147.61       100135.28       100119.39       100116.95       100127.15
  0.00034485888       100120.69       100044.66       100105.53       100147.53       100063.63       100114.36       100131.33       100124.37       100126.31       100098.18       100129.43       100118.58       100121.55       100146.39       100135.46        100118.9        100116.4       100127.16
  0.00035167187       100120.49       100044.09       100108.31       100147.93       100061.85       100114.64       100131.99       100124.69       100126.62       100098.17       100129.33       100118.68       100121.61        100145.2       100135.66        100118.4       100115.94       100127.18
  0.00035857344       100120.26        100043.5       100110.95       100148.25       100060.22       100114.95       100132.41       100124.99       100126.89       100098.15       100129.21       100118.77       100121.65       100143.87       100135.83        100117.9       100115.44       100127.19
  0.00036557611       100120.01       100042.86       100113.39       100148.54       100058.87       100115.25       100132.64       100125.25       100127.13       100098.13       100129.11       100118.84       100121.67       100142.53       100135.99       100117.34       100114.98       100127.21
  0.00037268805       100119.75       100042.12       100115.63        100148.8       100057.83       100115.44       100132.63       100125.51       100127.47       100098.13       100128.98       100118.91       100121.72       100141.12       100136.17       100116.75       100114.52       100127.22
  0.00037991283       100119.47       100041.26       100117.64       100149.02        100057.2        100115.5       100132.51       100125.77       100127.78       100098.13       100128.88       100118.98       100121.75        100139.7       100136.33       100116.14       100114.07       100127.23
  0.00038724891       100119.16       100040.28       100119.48       100149.17       100056.92       100115.51       100132.23       100126.04        100128.1       100098.15        100128.8       100119.06       100121.82       100138.21       100136.52       100115.48       100113.66       100127.24
   0.0003946019        100118.9       100039.34        100121.2       100149.24       100057.05       100115.61       100131.82       100126.34       100128.52       100098.24       100128.76        100119.2       100121.92       100136.87        100136.7       100114.96       100113.38       100127.33
  0.00040189108       100118.49       100038.49       100122.69       100149.03       100057.27       100115.73       100131.08       100126.51       100128.82        100098.2        100128.6        100119.2        100121.9        100135.4       100136.79       100114.16       100112.93       100127.28
  0.00040913016       100118.11       100037.98       100124.07       100148.73       100058.25       100116.06       100130.25       100126.73       100129.17       100098.22       100128.49       100119.26       100121.92       100133.99       100136.93       100113.43       100112.52       100127.28
  0.00041633166       100117.73       100037.91       100125.19       100148.35       100059.19       100116.48       100129.32       100126.98       100129.59       100098.29       100128.42       100119.34       100121.97       100132.64       100137.08       100112.71       100112.25       100127.31
  0.00042350698       100117.36       100038.24       100125.85       100147.94       100060.14       100116.92       100128.44       100127.22       100129.99       100098.38       100128.35       100119.43       100122.02       100131.25       100137.23       100112.01       100112.02       100127.35
  0.00043066581       100116.96        100038.9       100125.85       100147.58       100061.14       100117.29       100127.67       100127.46       100130.43       100098.46       100128.29       100119.52       100122.09       100129.83       100137.37       100111.28       100111.77       100127.37
  0.00043781639       100116.53       100039.78       100124.96       100147.26        100061.7       100117.58       100127.05       100127.68       100130.83       100098.52       100128.24       100119.59       100122.14       100128.35        100137.5       100110.52       100111.47       100127.39
  0.00044496559       100116.12       100040.84       100123.12       100146.96       100062.22       100117.78       100126.65       100127.93       100131.27       100098.63       100128.22        100119.7       100122.19       100126.88       100137.65       100109.76       100111.26       100127.44
  0.00045211872       100115.72       100041.99       100120.41       100146.62       100062.68       100117.94        100126.4       100128.18       100131.66       100098.73       100128.19       100119.81       100122.25       100125.42       100137.77       100109.05       100111.13       100127.47
  0.00045927821       100115.31        100043.2       100116.93       100146.24       100063.18       100118.02       100126.24       100128.41       100132.07       100098.85       100128.19       100119.91        100122.3       100124.01       100137.91       100108.38       100110.86       100127.51
  0.00046644213        100114.9       100044.43       100112.87       100145.82       100063.87       100117.99        100126.1       100128.62       100132.49       100098.94       100128.14          100120       100122.34       100122.68       100138.02       100107.77       100110.59       100127.52
  0.00047361059       100114.51        100045.7        100108.4        100145.3       100065.02       100117.83       100125.84       100128.83       100132.86       100099.05       100128.11       100120.11       100122.37        100121.6       100138.15       100107.08       100110.41       100127.55
  0.00048078217       100114.16       100047.02       100103.65       100144.72       100066.53       100117.53       100125.43       100129.03       100133.22        100099.2        100128.1       100120.23       100122.41       100120.71       100138.28       100106.26       100110.13       100127.57
  0.00048795388       100113.82       100048.38       100098.87       100144.16       100068.47       100117.04       100124.88       100129.25       100133.59       100099.33       100128.09       100120.36       100122.46       100120.08       100138.41       100105.55       100109.99       100127.61
  0.00049512121       100113.51       100049.79       100094.32       100143.62        100070.7       100116.44       100124.22       100129.44        100133.9       100099.49       100128.08       100120.49       100122.51       100119.65       100138.54       100104.85       100109.73       100127.63
  0.00050227863       100113.23       100051.27       100090.74       100143.18       100073.05       100115.71       100123.56       100129.64       100134.19       100099.61       100128.08       100120.63       100122.55       100119.37       100138.68       100104.26       100109.55       100127.66
  0.00050941991       100112.98       100052.76       100088.76       100142.73       100075.43       100114.85       100122.93       100129.82       100134.43       100099.76        100128.1       100120.77       100122.58       100119.17       100138.81       100103.54       100109.32       100127.68
  0.00051653872       100112.76       100054.26       100089.22       100142.34       100077.57       100113.87       100122.41       100129.99       100134.76       100099.89       100128.11        100120.9       100122.62       100119.03       100138.92       100102.84       100109.13        100127.7
  0.00052362936       100112.57       100055.74       100092.81          100142       100079.31       100112.78       100122.02       100130.16       100134.94       100100.02       100128.11       100121.04       100122.67       100118.87       100139.05        100102.2       100108.93       100127.71
  0.00053068718        100112.4       100057.24       100099.13       100141.72        100080.6       100111.55       100121.77       100130.32       100135.19       100100.15       100128.12       100121.17        100122.7       100118.67       100139.17       100101.73       100108.73       100127.72
  0.00053770922       100112.27       100058.71       100106.51       100141.53       100081.28       100110.22        100121.7       100130.48       100135.35       100100.27       100128.09        100121.3       100122.74       100118.44       100139.29       100101.17       100108.54       100127.74
  0.00054469446       100112.16       100060.13       100113.37        100141.4       100081.59       100108.76       100121.76       100130.61       100135.56       100100.37       100128.04       100121.42       100122.76        100118.1        100139.4       100100.65        100108.3       100127.74
  0.00055164408       100112.11       100061.62       100118.47       100141.35       100081.71       100107.24       100121.95       100130.78       100135.78       100100.52       100128.05       100121.56       100122.83       100117.63       100139.52       100100.19        100108.1       100127.76
  0.00055856141       100112.06       100063.12       100121.07       100141.29       100081.79       100105.58       100122.22       100130.91       100135.96       100100.62       100128.01       100121.68       100122.85       100116.94       100139.63       100099.85       100107.91       100127.77
  0.00056545186       100112.07       100064.74        100121.6       100141.24       100082.04       100103.87        100122.6       100131.06       100136.32       100100.74       100127.99       100121.82       100122.91       100116.04       100139.75       100099.56       100107.77       100127.79
  0.00057232264       100112.08       100066.28       100121.39        100141.1       100082.53       100102.08        100122.9       100131.19       100136.45       100100.83       100127.96       100121.93       100122.93       100114.83       100139.85       100099.24       100107.61        100127.8
   0.0005791826       100112.14       100067.88       100121.63       100140.95       100083.37       100100.28       100123.22       100131.32       100136.64       100100.94       100127.96       100122.06       100123.03       100113.35       100139.95       100099.12       100107.42       100127.82
  0.00058604195        100112.2       100069.36       100122.93       100140.77       100084.59       100098.45       100123.46       100131.44        100136.7       100101.01       100127.91       100122.17       100123.06       100111.56       100140.05       100099.15       100107.33       100127.83
  0.00059291208       100112.28       100070.62       100124.74       100140.64       100086.13       100096.66       100123.64       100131.57       100136.93       100101.09       100127.88       100122.29       100123.11       100109.54       100140.15       100099.31       100107.19       100127.85
  0.00059980545       100112.37       100071.57       100126.38       100140.62       100087.82       100094.86       100123.79       100131.67       100136.79       100101.14       100127.85       100122.39       100123.16       100107.22       100140.23       100099.46       100107.04       100127.85
  0.00060673551       100112.47       100072.03       100127.47       100140.81        100089.5       100093.16       100123.88       100131.77       100136.83       100101.19       100127.82       100122.49        100123.2       100104.76        100140.3       100099.81       100106.89       100127.85
  0.00061370983       100112.63       100071.85       100127.81       100141.41       100091.06       100091.57       100123.95       100131.93       100136.87       100101.27       100127.84       100122.64       100123.31       100102.17       100140.44       100100.22       100106.86       100127.91
  0.00062064348        100112.7       100071.21        100127.7       100142.15       100092.35       100089.99       100123.88          100132          100137       100101.27       100127.76       100122.69       100123.31       100099.43       100140.49       100100.68       100106.77       100127.88
  0.00062750818       100112.76       100070.24       100127.53       100143.38       100093.47       100088.52       100123.79       100132.07       100136.89       100101.26       100127.67       100122.75       100123.32       100096.69       100140.52       100101.04       100106.64       100127.84
  0.00063430607       100112.85       100069.12       100127.35       100144.32       100094.56       100087.14       100123.64       100132.15       100136.71       100101.24       100127.61       100122.82       100123.36       100094.08       100140.59       100101.62       100106.67       100127.84
  0.00064103967       100112.95       100068.17       100127.06       100145.59       100095.72       100085.84       100123.54       100132.25       100136.73       100101.26       100127.57       100122.91       100123.42       100091.67       100140.65       100102.02       100106.64       100127.83
  0.00064771184       100113.02       100067.52        100126.6       100146.48       100096.93       100084.58       100123.43       100132.33       100136.63       100101.26       100127.51       100122.98       100123.44       100089.57        100140.7       100102.46       100106.67       100127.83