# Probe 0 (0 0.005 0)
# Probe 1 (-0.01 -0.005 0)
# Probe 2 (0.01 -0.005 0)
# Probe 3 (0 -0.005 0.01)
# Probe 4 (0 -0.005 -0.01)
# Probe 5 (-0.01 0.005 0)
# Probe 6 (0.01 0.005 0)
# Probe 7 (0 0.005 0.01)
# Probe 8 (0 0.005 -0.01)
# Probe 9 (-0.005 0.005 0)
# Probe 10 (0.005 0.005 0)
# Probe 11 (0 0.005 0.005)
# Probe 12 (0 0.005 -0.005)
# Probe 13 (-0.01 0.015 0)
# Probe 14 (0.01 0.015 0)
# Probe 15 (0 0.015 0.01)
# Probe 16 (0 0.015 -0.01)
# Probe 17 (0 0.015 0)
#         Probe               0               1               2               3               4               5               6               7               8               9              10              11              12              13              14              15              16              17
#          Time
  6.0928018e-06       100122.19       100147.42       100132.33       100127.71        100079.4       100131.36        100134.4       100128.21          100130       100129.32       100123.71       100126.06       100126.09       100119.99       100135.15       100127.52        100122.8       100120.18
  1.2161232e-05       100119.09       100144.16        100129.3       100124.52       100076.53       100127.99       100130.74       100124.66       100126.71       100126.34       100120.54       100122.82       100123.07        100116.8       100132.37       100123.66       100119.52       100117.05
  1.8205193e-05       100117.77       100142.95       100128.01        100123.2       100075.58        100126.4       100128.92       100123.08       100125.23       100125.18       100119.09       100121.36       100121.75       100115.44       100131.45       100121.73       100117.89       100115.83
  2.4227046e-05       100116.85       100142.19       100127.11       100122.32       100075.04       100125.24       100127.55       100121.68       100124.22       100124.46          100118       100120.36       100120.79        100114.5       100130.94       100120.28       100116.68        100115.1
  3.0229185e-05       100116.22       100141.73       100126.45       100121.77       100074.91        100124.4       100126.52       100120.66       100123.56       100124.04       100117.14       100119.66       100120.12        100113.9       100130.74       100119.17       100115.53        100114.7
  3.6213536e-05       100115.78        100141.5       100125.99       100121.47       100075.07       100123.76       100125.79       100119.85       100123.16       100123.85       100116.44       100119.19       100119.65       100113.51       100130.69       100118.25       100114.73       100114.54
  4.2181807e-05       100115.49       100141.44       100125.64       100121.35       100075.42       100123.31        100125.3       100119.16       100122.94       100123.81       100115.83       100118.89        100119.3        100113.3       100130.82       100117.54       100113.82       100114.54
  4.8135617e-05       100115.28       100141.48        100125.4       100121.36       100075.98       100122.98       100124.99        100118.6       100122.85       100123.88        100115.3       100118.67       100119.05       100113.17       100131.01       100117.01       100113.21       100114.65
  5.4076514e-05       100115.16        100141.6       100125.22       100121.48       100076.63       100122.71       100124.85       100118.24       100122.88       100124.02       100114.82       100118.58       100118.89       100113.14       100131.21        100116.5       100112.55       100114.84
  6.0005998e-05       100115.06       100141.76       100125.02       100121.65       100077.42       100122.54       100124.81        100117.8       100122.91       100124.22       100114.34       100118.52       100118.76        100113.1       100131.39       100116.06       100111.93       100115.07
  6.5925525e-05       100115.04       100142.02        100124.9       100121.94       100078.31       100122.45       100124.92       100117.36       100123.02       100124.51       100113.91       100118.55       100118.72       100113.25       100131.67       100115.77       100111.52       100115.39
   7.183653e-05       100115.01       100142.26       100124.75        100122.2       100079.24       100122.38       100125.07       100116.97       100123.13       100124.76       100113.48       100118.59       100118.65       100113.27       100131.83       100115.45        100111.2       100115.71
  7.7740437e-05       100114.98       100142.53       100124.58        100122.5       100080.23       100122.35       100125.29       100116.66       100123.21       100125.04       100113.01       100118.64        100118.6       100113.36       100132.04       100115.19       100110.72       100116.03
  8.3638675e-05       100114.95        100142.8        100124.4       100122.78       100081.25       100122.32       100125.52       100116.26       100123.29       100125.33       100112.55       100118.69       100118.56       100113.49       100132.25       100114.99       100110.24       100116.38
  8.9532654e-05       100114.94       100143.08       100124.19       100123.08        100082.3       100122.37       100125.74       100115.93       100123.35       100125.62       100112.13       100118.75       100118.54        100113.6       100132.38       100114.79        100109.8       100116.73
  9.5423786e-05       100114.92       100143.35       100123.95       100123.34       100083.34        100122.4       100125.93       100115.76       100123.37        100125.9       100111.68       100118.83       100118.51       100113.73       100132.55       100114.61       100109.41       100117.06
  0.00010131351        100114.9       100143.62        100123.7       100123.61       100084.43       100122.46       100126.08       100115.78       100123.38       100126.18       100111.22       100118.94       100118.48       100113.83       100132.69       100114.51          100109       100117.41
  0.00010720327       100114.89       100143.88       100123.39       100123.84        100085.5       100122.49       100126.17       100115.71        100123.4       100126.46       100110.78          100119       100118.44          100114       100132.78       100114.35       100108.58       100117.74
  0.00011309454       100114.85        100144.1       100123.01       100124.07       100086.54       100122.59       100126.16        100115.7       100123.35        100126.7       100110.29       100119.09       100118.39       100114.11       100132.92       100114.27       100108.24       100118.05
  0.00011898879       100114.83       100144.34       100122.59       100124.26       100087.58       100122.67       100126.09        100115.8       100123.32       100126.96       100109.83       100119.18       100118.36       100114.24       100132.86       100114.13       100107.76       100118.35
  0.00012488749        100114.8       100144.55       100122.16       100124.48       100088.65       100122.72       100125.92       100115.94       100123.25       100127.19       100109.35       100119.26       100118.31       100114.42       100132.87       100114.02       100107.62       100118.64
  0.00013079212       100114.76       100144.73       100121.66       100124.65        100089.7       100122.76       100125.68       100116.27       100123.12        100127.4       100108.82       100119.34       100118.25       100114.53       100132.89       100114.02       100107.37        100118.9
  0.00013670415       100114.73       100144.93        100121.1       100124.82       100090.78        100122.8       100125.35       100116.67       100123.06       100127.61       100108.29        100119.4        100118.2       100114.72       100132.73       100113.92       100107.16       100119.15
    0.000142625       100114.68       100145.09       100120.53       100125.03       100091.86       100122.81       100124.98       100117.11       100122.91       100127.79       100107.72       100119.47       100118.14       100114.81       100132.69       100113.88       100107.06       100119.38
  0.00014855612       100114.66       100145.27        100119.9       100125.24       100092.97       100122.82       100124.61       100117.59       100122.72       100127.96       100107.13       100119.56        100118.1       100114.98       100132.47       100113.79       100106.86       100119.61
  0.00015449887       100114.63       100145.43       100119.21       100125.48       100094.07       100122.81       100124.24       100118.16       100122.33       100128.12       100106.48       100119.63       100118.03       100115.16       100132.32       100113.79       100106.81       100119.82
  0.00016045459       100114.59       100145.58       100118.49       100125.71       100095.14       100122.78       100123.88       100118.56       100122.52       100128.23       100105.79       100119.71       100117.97       100115.29       100132.23       100113.68       100106.69       100120.01
  0.00016642455       100114.57       100145.73       100117.72       100126.01       100096.22       100122.77       100123.58       100119.04       100122.24       100128.35        100105.1       100119.76       100117.92       100115.44          100132       100113.67       100106.66        100120.2
  0.00017240991       100114.54       100145.88       100116.93       100126.33       100097.29       100122.81       100123.32       100119.46          100122       100128.43       100104.38       100119.82       100117.86       100115.57       100131.88       100113.65       100106.63       100120.38
  0.00017841176       100114.53       100146.03       100116.07       100126.73       100098.36       100122.74       100123.15       100119.86       100121.76       100128.51       100103.65       100119.87       100117.81       100115.74       100131.62       100113.72        100106.6       100120.57
  0.00018443108       100114.51       100146.15       100115.18       100127.15       100099.43       100122.79       100122.97       100120.19        100121.5       100128.55       100102.92       100119.92       100117.75       100115.82       100131.32       100113.73       100106.45       100120.75
  0.00019046871       100114.51        100146.3       100114.25       100127.62       100100.47        100122.9       100122.81       100120.46       100121.24       100128.59       100102.22          100120       100117.72       100115.88       100131.01        100113.8        100106.5       100120.92
  0.00019652536       100114.51       100146.44       100113.29       100128.11       100101.53          100123       100122.55       100120.74       100121.01       100128.61       100101.53       100120.03       100117.67       100115.93       100130.77       100113.96       100106.47       100121.09
  0.00020260157       100114.52       100146.56       100112.28       100128.64       100102.56       100123.15        100122.2       100120.99       100120.76       100128.61       100100.87       100120.12       100117.63       100115.98       100130.55       100114.09       100106.36       100121.26
  0.00020869772       100114.55       100146.68       100111.24        100129.2       100103.58       100123.35       100121.75       100121.17       100120.53       100128.61       100100.28       100120.18        100117.6       100116.01       100130.29       100114.09       100106.38       100121.43
  0.00021481399       100114.58       100146.81       100110.15       100129.77       100104.62       100123.61       100121.15       100121.35       100120.37       100128.62       100099.75       100120.22       100117.59       100115.99       100130.09       100114.34       100106.33       100121.59
  0.00022095033       100114.64       100146.92       100109.05       100130.31       100105.64       100123.89       100120.45       100121.55       100120.16       100128.62        100099.3       100120.34       100117.56          100116       100129.73       100114.59       100106.39       100121.77
  0.00022710655       100114.69       100147.02       100107.91       100130.78       100106.67       100124.14       100119.62       100121.77       100119.95        100128.6       100098.89       100120.39       100117.54       100115.95       100129.47       100114.72       100106.41       100121.92
  0.00023328228       100114.75        100147.1       100106.75       100131.25       100107.68       100124.47        100118.7       100121.96       100119.75       100128.59       100098.58        100120.4       100117.53       100115.94       100129.24        100115.2       100106.47       100122.08
  0.00023947685       100114.81       100147.17       100105.61       100131.66       100108.71       100124.74       100117.64       100122.12       100119.52       100128.55       100098.34       100120.46       100117.49       100116.01       100129.06       100115.37       100106.45       100122.22
  0.00024568942       100114.91       100147.26       100104.43       100132.01       100109.74       100125.04       100116.51       100122.26       100119.32       100128.55       100098.21       100120.51       100117.49       100116.02       100128.81        100115.5       100106.53       100122.38
  0.00025191896       100115.02       100147.35       100103.33       100132.31       100110.79       100125.27       100115.24       100122.43       100119.11       100128.56       100098.16       100120.58       100117.49       100116.04       100128.62       100115.93       100106.67       100122.54
  0.00025816421       100115.13       100147.42       100102.23        100132.6       100111.85       100125.49       100113.82       100122.55       100118.88       100128.54       100098.17       100120.63       100117.47       100116.08       100128.49       100116.42       100106.81       100122.69
   0.0002644238       100115.26       100147.49       100101.15       100132.88        100112.9       100125.69       100112.23       100122.68       100118.69       100128.53       100098.25       100120.67       100117.47       100116.13        100128.4       100116.84       100107.05       100122.85
  0.00027069615        100115.4       100147.55       100100.13       100132.88       100113.96       100125.81       100110.48       100122.82       100118.48       100128.51       100098.39       100120.74       100117.46       100116.24       100128.38       100117.38       100107.35       100123.01
  0.00027697959       100115.54       100147.61       100099.16       100132.98       100114.99       100125.85       100108.56       100122.95       100118.26       100128.47       100098.58       100120.76       100117.45       100116.35       100128.31       100117.83       100107.67       100123.15
  0.00028327233        100115.7       100147.67       100098.25       100133.09       100116.03       100125.96        100106.5       100123.07       100118.05       100128.43        100098.8       100120.81       100117.46       100116.52        100128.3       100118.39       100108.06        100123.3
   0.0002895725       100115.86       100147.72       100097.46       100133.11       100117.04       100125.97       100104.38       100123.21       100117.85       100128.38       100099.05       100120.86       100117.43       100116.63        100128.3       100118.94       100108.39       100123.46
  0.00029587815       100116.04       100147.79        100096.7       100133.22       100118.03       100125.97       100102.21       100123.41       100117.63       100128.35       100099.33       100120.92       100117.43       100116.74       100128.41       100119.55       100108.79       100123.62
  0.00030218734       100116.21       100147.85       100096.04        100133.2       100118.99       100125.93       100100.07       100123.55       100117.42        100128.3       100099.61       100120.95        100117.4       100116.93       100128.46       100120.16       100109.29       100123.77
  0.00030849808        100116.4       100147.92       100095.47       100133.24       100119.93       100125.89       100098.13       100123.75       100117.15       100128.25        100099.9          100121       100117.39       100117.12       100128.58       100120.84       100109.78       100123.93
  0.00031480844        100116.6          100148       100095.03       100133.37       100120.85       100125.87       100096.61       100123.93       100116.93       100128.21       100100.21       100121.05       100117.38       100117.21       100128.89       100121.52       100110.26       100124.08
  0.00032111651       100116.79       100148.08       100094.68        100133.3       100121.74       100125.84       100095.68       100124.09       100116.65       100128.15       100100.49       100121.09       100117.35       100117.52       100129.09        100122.2       100110.77       100124.23
  0.00032742048       100117.01        100148.2       100094.45       100133.35       100122.63       100125.77       100095.43       100124.31       100116.33       100128.11       100100.77       100121.16       100117.33       100117.72       100129.27       100122.89       100111.26       100124.39
  0.00033371859        100117.2       100148.32       100094.27       100133.41       100123.49        100125.7       100095.82       100124.53       100116.07       100128.05       100101.02        100121.2       100117.29       100117.92       100129.52        100123.6       100111.83       100124.54
  0.00034000921       100117.42       100148.47       100094.22       100133.41       100124.37       100125.63       100096.67       100124.74       100115.77       100128.01       100101.26       100121.26       100117.27       100118.15       100129.86       100124.33       100112.36       100124.71
  0.00034629083       100117.63       100148.64       100094.23       100133.42       100125.21       100125.53       100097.82        100124.9        100115.4       100127.97       100101.48       100121.29       100117.22       100118.38       100130.12       100125.05       100112.86       100124.86
  0.00035256207       100117.85       100148.81       100094.32        100133.4       100126.07       100125.57        100099.1       100125.08        100115.1       100127.94       100101.69       100121.35       100117.19       100118.58       100130.47       100125.77        100113.4       100125.02
  0.00035882169       100118.06       100149.01       100094.47       100133.37       100126.91       100125.38       100100.41       100125.24       100114.79       100127.91       100101.87       100121.39       100117.16       100118.78       100130.76       100126.47       100113.95       100125.16
  0.00036506862       100118.29       100149.22        100094.7       100133.36       100127.74       100125.37       100101.62       100125.42       100114.48       100127.91       100102.05       100121.47       100117.14       100119.03       100131.04       100127.22       100114.45       100125.32
  0.00037130195       100118.49        100149.4       100094.92       100133.27       100128.55       100125.34       100102.62       100125.61       100114.12       100127.89       100102.18       100121.51        100117.1       100119.18       100131.37       100127.89       100114.97       100125.47
  0.00037752092       100118.71        100149.6       100095.18       100133.17       100129.35       100125.39       100103.37       100125.79       100113.85       100127.88       100102.32       100121.56       100117.09       100119.38       100131.66       100128.63        100115.5       100125.61
  0.00038372498       100118.93       100149.78        100095.4       100133.03       100130.14       100125.45       100103.79       100126.01       100113.54        100127.9       100102.45       100121.62        100117.1       100119.66       100131.97       100129.32       100116.03       100125.76
  0.00038991376       100119.15       100149.96       100095.59       100132.81       100130.91       100125.55        100103.9       100126.22       100113.32       100127.91       100102.55       100121.68       100117.11       100119.87       100132.25          100130       100116.58       100125.91
  0.00039608709       100119.35        100150.1       100095.71        100132.5       100131.64       100125.66       100103.66       100126.44       100113.12        100127.9       100102.63       100121.74       100117.12       100120.05       100132.52       100130.66       100117.08       100126.04
  0.00040224502       100119.58       100150.23        100095.8       100132.12       100132.35       100125.78       100103.13       100126.88       100112.89       100127.91       100102.72       100121.81       100117.19       100120.21        100132.8       100131.29       100117.61       100126.19
  0.00040838781       100119.79       100150.31       100095.83       100131.63       100133.02       100125.93       100102.37       100127.12       100112.72        100127.9       100102.79       100121.89       100117.25       100120.32       100133.04       100131.91       100118.13       100126.32
  0.00041451598       100120.03       100150.38       100095.86       100131.07       100133.66       100126.07       100101.43       100127.34       100112.64       100127.91       100102.87       100121.97       100117.35       100120.43       100133.31       100132.52       100118.67       100126.47
  0.00042063028       100120.24       100150.37       100095.91       100130.41       100134.24       100126.21       100100.34       100127.82       100112.54       100127.87       100102.92       100122.05       100117.43       100120.54       100133.55       100133.09       100119.19        100126.6
  0.00042673173       100120.45       100150.37       100095.99       100129.68       100134.78       100126.32       100099.25       100128.15       100112.45       100127.83       100102.98       100122.13       100117.53        100120.6       100133.79       100133.63       100119.69       100126.73
  0.00043282161       100120.67       100150.32        100096.1       100128.93       100135.28       100126.49       100098.25       100128.46        100112.4       100127.77       100103.03       100122.22       100117.63       100120.73       100134.02       100134.15       100120.19       100126.86
  0.00043890149       100120.88       100150.22       100096.28       100128.21       100135.72       100126.59       100097.45       100128.82       100112.38        100127.7       100103.06        100122.3       100117.74       100120.77       100134.26       100134.63       100120.66       100126.99
   0.0004449732       100121.09       100150.07       100096.57       100127.55       100136.12       100126.71          100097       100129.13       100112.32       100127.63       100103.11       100122.41       100117.86       100120.85       100134.44       100135.08       100121.15       100127.12
  0.00045103884        100121.3       100149.88       100096.89       100127.03       100136.46       100126.79       100096.94       100129.43       100112.32       100127.54       100103.14        100122.5       100117.99        100120.9       100134.67       100135.44        100121.6       100127.24
  0.00045710075       100121.51       100149.64       100097.24        100126.6       100136.76       100126.84       100097.29        100129.7       100112.32       100127.47       100103.18        100122.6       100118.13       100120.92       100134.88       100135.79       100122.01       100127.37
  0.00046316142       100121.69       100149.32       100097.63       100126.34          100137       100126.83       100098.01       100129.95       100112.29       100127.38       100103.19       100122.69       100118.27       100120.94       100135.05       100136.08       100122.42       100127.46
  0.00046922347       100121.88       100148.95       100098.06       100126.13       100137.21       100126.84       100099.06        100130.2       100112.31       100127.32        100103.2       100122.78       100118.42       100120.95       100135.22       100136.31       100122.79       100127.55
  0.00047528955       100122.09       100148.55       100098.56        100126.1        100137.4       100126.77       100100.33       100130.42       100112.35        100127.3       100103.24        100122.9        100118.6       100121.01       100135.41       100136.56       100123.21       100127.67
  0.00048136227       100122.29       100148.07       100099.08        100126.1       100137.55       100126.65       100101.67       100130.58       100112.49       100127.28       100103.27          100123        100118.8       100121.04       100135.59       100136.74       100123.57       100127.79
  0.00048744404       100122.49       100147.55       100099.63       100126.22       100137.65       100126.55       100103.01       100130.66        100112.6       100127.31        100103.3       100123.13       100118.99       100121.12       100135.76       100136.91       100123.93        100127.9
  0.00049353696       100122.68       100146.99       100100.16       100126.49       100137.69       100126.35       100104.21       100130.77       100112.77       100127.36       100103.33       100123.25        100119.2       100121.16        100135.9       100137.08       100124.28       100128.01
  0.00049964274       100122.88        100146.4        100100.7       100126.87        100137.7       100126.17        100105.2        100130.8       100112.92       100127.44       100103.37       100123.38       100119.44       100121.26       100136.05        100137.3       100124.64       100128.11
   0.0005057626       100123.04       100145.78       100101.19       100127.31       100137.63       100125.95       100105.88       100130.79       100113.04       100127.52       100103.37       100123.48       100119.65       100121.32       100136.15       100137.49       100124.92       100128.19
  0.00051189722       100123.22       100145.13       100101.67       100127.77       100137.48       100125.75       100106.25       100130.75       100113.23       100127.63       100103.39        100123.6       100119.88       100121.47       100136.25       100137.76       100125.24       100128.27
   0.0005180467       100123.38       100144.46       100102.12       100128.21       100137.28       100125.57       100106.25       100130.65       100113.43       100127.75        100103.4        100123.7        100120.1       100121.56       100136.33       100138.05       100125.53       100128.34
  0.00052421062       100123.55       100143.75       100102.55       100128.61       100137.05       100125.46       100105.94       100130.59       100113.68       100127.91       100103.41       100123.84       100120.33       100121.64        100136.4       100138.42       100125.81       100128.42
   0.0005303881       100123.73       100143.02       100102.93       100128.97       100136.79       100125.37       100105.32       100130.52       100113.91       100128.09       100103.43       100123.96       100120.58       100121.77       100136.49       100138.76       100126.14       100128.49
  0.00053657796       100123.89       100142.24       100103.25       100129.29       100136.35       100125.34       100104.41       100130.39       100114.18       100128.29       100103.44       100124.09       100120.82       100121.92       100136.53       100139.12       100126.37       100128.56
  0.00054277881       100124.06       100141.44       100103.54       100129.65          100136       100125.47       100103.25       100130.26       100114.38       100128.49       100103.45       100124.22       100121.06       100122.09       100136.57        100139.5        100126.6       100128.62
  0.00054898919       100124.22       100140.61       100103.81       100130.04       100135.26       100125.65       100101.89       100130.17       100114.74       100128.72       100103.46       100124.34        100121.3       100122.26        100136.6       100139.84       100126.85       100128.68
  0.00055520773       100124.37       100139.73       100104.07       100130.47        100134.6        100125.9       100100.37       100130.09       100115.05       100128.93       100103.48       100124.45       100121.54        100122.4       100136.62       100140.18       100127.04       100128.72
  0.00056143327       100124.53       100138.83       100104.37       100130.96        100133.8       100126.33       100098.79       100130.01       100115.42       100129.17        100103.5       100124.58       100121.79       100122.61       100136.62       100140.48       100127.22       100128.77
  0.00056766489       100124.69       100137.87       100104.71        100131.5       100132.88       100126.76        100097.2       100129.99        100115.8        100129.4       100103.51       100124.73       100122.03       100122.78       100136.61       100140.78       100127.36       100128.82
  0.00057390199       100124.83       100136.84       100105.12       100132.06       100131.79       100127.28       100095.72       100129.96       100116.25       100129.63       100103.52       100124.85       100122.25       100122.96       100136.59       100141.06        100127.5       100128.86
  0.00058014429       100124.98       100135.77       100105.59       100132.61       100130.57       100127.89       100094.43       100129.98       100116.59       100129.86       100103.55       100124.98       100122.47        100123.2       100136.57       100141.35        100127.6        100128.9
  0.00058639185       100125.11       100134.64       100106.11       100133.01        100129.2       100128.44       100093.37       100129.96       100116.96       100130.09       100103.55       100125.11       100122.68       100123.39       100136.52       100141.68       100127.64       100128.92