# Probe 0 (0 0.005 0)
# Probe 1 (-0.01 -0.005 0)
# Probe 2 (0.01 -0.005 0)
# Probe 3 (0 -0.005 0.01)
# Probe 4 (0 -0.005 -0.01)
# Probe 5 (-0.01 0.005 0)
# Probe 6 (0.01 0.005 0)
# Probe 7 (0 0.005 0.01)
# Probe 8 (0 0.005 -0.01)
# Probe 9 (-0.005 0.005 0)
# Probe 10 (0.005 0.005 0)
# Probe 11 (0 0.005 0.005)
# Probe 12 (0 0.005 -0.005)
# Probe 13 (-0.01 0.015 0)
# Probe 14 (0.01 0.015 0)
# Probe 15 (0 0.015 0.01)
# Probe 16 (0 0.015 -0.01)
# Probe 17 (0 0.015 0)
#         Probe               0               1               2               3               4               5               6               7               8               9              10              11              12              13              14              15              16              17
#          Time
  6.0928018e-06               (0.42713031 -5.4286902 -0.32016758)               (-2.9672648 0.10095381 -5.8839097)               (1.0390853 3.7670532 1.1687799)               (-1.1205973 4.2689285 0.14248199)               (0.38120414 -0.61058895 -2.119537)               (-1.2522158 5.3268764 -3.0774326)               (-2.5627285 3.5971433 8.3114911)               (-6.5528823 1.6722908 0.047016287)               (10.425665 3.6872406 0.51419087)               (-1.640683 -0.52275561 -0.24921709)               (-1.6591043 1.7586418 4.3564752)               (-2.3399557 -2.5900403 0.10549445)               (4.2151106 1.0820697 1.690585)               (2.0434842 -0.34273696 -0.21312925)               (3.640342 -1.8306498 7.5026188)               (-2.0577344 -1.1499584 -3.4530336)               (8.0102625 -0.21191329 -0.70851925)               (-2.917442 -0.89432972 -0.1868516)
  1.2161232e-05               (0.45173593 -5.3264532 -0.3482879)               (-2.8426685 0.098624849 -5.980616)               (1.0360786 3.7122979 1.3237677)               (-1.1185496 4.2593918 0.10517637)               (0.44388053 -0.67502388 -2.2240431)               (-1.3272275 5.2242117 -3.0784756)               (-2.6418155 3.8049696 8.1492301)               (-6.8406798 1.5052123 0.10245176)               (10.3354 3.8646172 0.54959928)               (-1.6489437 -0.52638624 -0.27780992)               (-1.7835669 1.8014267 4.4304774)               (-2.2328357 -2.5837373 0.093256207)               (4.1964279 1.1384697 1.7023682)               (1.999525 -0.36595108 -0.19100392)               (3.6729367 -1.8744538 7.4575061)               (-1.9834296 -1.2394357 -3.3977703)               (8.2573803 -0.16798765 -0.78490258)               (-3.0179911 -0.88610538 -0.15684287)
  1.8205193e-05               (0.47103081 -5.2287179 -0.38024758)               (-2.7420672 0.08304569 -6.0741684)               (1.0356129 3.6480258 1.4911127)               (-1.1323947 4.2481068 0.069156589)               (0.49261478 -0.71410579 -2.330949)               (-1.4014152 5.1174903 -3.0874244)               (-2.7774678 4.0185284 7.9699027)               (-7.0942379 1.2303358 0.16748701)               (10.195555 4.0667608 0.56409737)               (-1.6564747 -0.53153785 -0.31111808)               (-1.9469773 1.8289717 4.4840036)               (-2.1267623 -2.5805958 0.080658021)               (4.1786454 1.1940805 1.7157757)               (1.9564681 -0.39233163 -0.17003199)               (3.6997578 -1.9171999 7.3973274)               (-1.9139858 -1.3291524 -3.3408137)               (8.5018851 -0.060605564 -0.92145136)               (-3.1208895 -0.8747177 -0.12484055)
  2.4227046e-05               (0.48475932 -5.1358001 -0.41582378)               (-2.6684877 0.065137521 -6.1617966)               (1.0356326 3.577808 1.6680399)               (-1.1620308 4.2348233 0.034306298)               (0.52906582 -0.73071248 -2.4388026)               (-1.4748883 5.0065023 -3.1043941)               (-2.9872805 4.2231473 7.766481)               (-7.3107923 0.84964677 0.23818368)               (10.02319 4.2769589 0.55288082)               (-1.662738 -0.53792297 -0.3489929)               (-2.1468496 1.842849 4.5165916)               (-2.0219457 -2.5801577 0.067535102)               (4.1616452 1.2486268 1.7308015)               (1.9148761 -0.42142717 -0.15036034)               (3.72233 -1.9590665 7.3227148)               (-1.8490705 -1.4184918 -3.2821104)               (8.7302644 0.10814181 -1.0985076)               (-3.2263853 -0.85818052 -0.089929292)
  3.0229185e-05               (0.49272854 -5.0479004 -0.45467234)               (-2.6201634 0.054712728 -6.2418697)               (1.0325702 3.5041089 1.8506165)               (-1.2072938 4.2190601 0.00026913767)               (0.55331686 -0.72593016 -2.5474686)               (-1.547842 4.8910261 -3.1297965)               (-3.27949 4.4063199 7.5356034)               (-7.4789375 0.38338803 0.30752564)               (9.8345899 4.4829999 0.51759528)               (-1.6675364 -0.54544062 -0.39145209)               (-2.3781895 1.8463864 4.528229)               (-1.9188121 -2.5821136 0.053796282)               (4.1452357 1.3017161 1.7470852)               (1.8743222 -0.45251421 -0.13177646)               (3.7438778 -1.9973369 7.2358229)               (-1.7881951 -1.5072281 -3.2225658)               (8.9256778 0.33394318 -1.2875072)               (-3.3346075 -0.8342065 -0.051265993)
  3.6213536e-05               (0.4948236 -4.9651486 -0.49660244)               (-2.592178 0.061208495 -6.314323)               (1.0221337 3.4292322 2.0345005)               (-1.2679279 4.2003598 -0.033439328)               (0.56525291 -0.70064646 -2.6576207)               (-1.6203562 4.77072 -3.1638119)               (-3.6509476 4.559429 7.2783818)               (-7.5934398 -0.14098025 0.36922042)               (9.6425766 4.6769967 0.46513625)               (-1.6704481 -0.55394439 -0.43845649)               (-2.6339982 1.8442037 4.5196137)               (-1.8182226 -2.587346 0.039858281)               (4.129077 1.3531451 1.7646263)               (1.8354238 -0.485379 -0.11445041)               (3.7687975 -2.0283628 7.1382541)               (-1.731762 -1.5945836 -3.1613679)               (9.0776058 0.6089187 -1.4511961)               (-3.4454459 -0.8002427 -0.008286382)
  4.2181807e-05               (0.49087754 -4.8876143 -0.5410167)               (-2.5771619 0.091696546 -6.3795618)               (0.99990715 3.3551207 2.2149677)               (-1.34344 4.1783466 -0.067279804)               (0.56474558 -0.6556431 -2.7698105)               (-1.6926583 4.645058 -3.2068878)               (-4.0875292 4.6785038 7.0003998)               (-7.6565638 -0.68575004 0.41832718)               (9.4551683 4.8543872 0.40496449)               (-1.6712921 -0.56339172 -0.4899813)               (-2.9064367 1.8416298 4.4918744)               (-1.720158 -2.5949205 0.025446993)               (4.1129314 1.4025462 1.7833541)               (1.7986627 -0.51992024 -0.098267414)               (3.8010917 -2.0464452 7.0330317)               (-1.679132 -1.6803883 -3.0988538)               (9.1781561 0.92551226 -1.552458)               (-3.558504 -0.75373635 0.039127925)
  4.8135617e-05               (0.48091658 -4.8152199 -0.58780321)               (-2.5662434 0.15064166 -6.4385634)               (0.96220633 3.2834668 2.3869511)               (-1.4331051 4.1528222 -0.10173024)               (0.55196092 -0.59182915 -2.8848244)               (-1.76474 4.513801 -3.2594777)               (-4.5670668 4.7637768 6.7107861)               (-7.6751257 -1.211659 0.45255729)               (9.275709 5.0125468 0.34639611)               (-1.6697517 -0.5737625 -0.54601844)               (-3.187117 1.8443909 4.4462933)               (-1.6246799 -2.6045325 0.010591193)               (4.0967644 1.4495795 1.8037168)               (1.7640296 -0.55564071 -0.084316689)               (3.8446364 -2.0463551 6.9241816)               (-1.6298501 -1.7641887 -3.0356713)               (9.2286977 1.2766333 -1.5655)               (-3.6730006 -0.69250613 0.090363935)
  5.4076514e-05               (0.4650099 -4.7478181 -0.63629539)               (-2.5520615 0.23906449 -6.4926155)               (0.90668483 3.2158787 2.5453269)               (-1.5357151 4.123745 -0.13732689)               (0.5269307 -0.51004403 -3.0028642)               (-1.8364561 4.3764933 -3.3217913)               (-5.0634596 4.8186799 6.4208274)               (-7.6648779 -1.6850658 0.47145231)               (9.1034787 5.1498213 0.29654041)               (-1.6656624 -0.58503956 -0.60657982)               (-3.4680693 1.8578792 4.3848003)               (-1.5313592 -2.6157442 -0.004667788)               (4.0802347 1.494243 1.8254884)               (1.73169 -0.59254195 -0.070752498)               (3.9023023 -2.0233445 6.8160458)               (-1.5842016 -1.8452759 -2.9714973)               (9.2385366 1.6560555 -1.4785546)               (-3.7878882 -0.61530262 0.14414966)
  6.0005998e-05               (0.44343514 -4.6851875 -0.68633194)               (-2.5291452 0.35357741 -6.54268)               (0.83291825 3.1535941 2.6849953)               (-1.6496997 4.0914408 -0.17454652)               (0.49020995 -0.41155617 -3.124674)               (-1.9083863 4.2326241 -3.3946141)               (-5.5507079 4.8483876 6.1425131)               (-7.6385221 -2.0798897 0.48151893)               (8.9353354 5.2650774 0.25959762)               (-1.6588547 -0.59727224 -0.67160893)               (-3.7421992 1.8868522 4.3094571)               (-1.4405503 -2.6287509 -0.020247349)               (4.0631629 1.5362474 1.8488474)               (1.7014069 -0.63056293 -0.05746394)               (3.9755201 -1.9751659 6.7129147)               (-1.541439 -1.9236384 -2.9067153)               (9.2154519 2.0571023 -1.2979312)               (-3.9019703 -0.52244765 0.19857936)
  6.5925525e-05               (0.41609478 -4.6270351 -0.73761602)               (-2.4950797 0.48793894 -6.5885497)               (0.74257692 3.0977376 2.8013396)               (-1.7729164 4.0566378 -0.21391611)               (0.44238154 -0.29760427 -3.250066)               (-1.980332 4.0816555 -3.4783222)               (-6.0056936 4.858566 5.8874893)               (-7.6112882 -2.3727331 0.4891258)               (8.7673539 5.3577587 0.237215)               (-1.6491919 -0.61056555 -0.74115404)               (-4.0034697 1.9353792 4.2226655)               (-1.3526584 -2.6426702 -0.036292989)               (4.0454716 1.5754966 1.8739495)               (1.6734091 -0.6696859 -0.044464342)               (4.0634884 -1.9025378 6.6187699)               (-1.501541 -1.9990872 -2.8413382)               (9.174636 2.4710793 -1.0442983)               (-4.0137779 -0.41642126 0.25119927)
   7.183653e-05               (0.38334226 -4.5729858 -0.78983003)               (-2.4502687 0.63325897 -6.6302519)               (0.63935588 3.0490956 2.8903863)               (-1.9025618 4.0204574 -0.25601794)               (0.38439302 -0.16996706 -3.3789394)               (-2.0524252 3.9228884 -3.5734537)               (-6.4097457 4.8544542 5.6663749)               (-7.5965361 -2.5533666 0.50200101)               (8.5959063 5.4273802 0.22909555)               (-1.636685 -0.62506242 -0.81511125)               (-4.2475934 2.0060813 4.1266214)               (-1.2676626 -2.657847 -0.052846551)               (4.0269195 1.6118623 1.9007184)               (1.6477462 -0.7100209 -0.03178291)               (4.1633453 -1.8098097 6.5368104)               (-1.4639714 -2.0713361 -2.7753341)               (9.1277687 2.8865542 -0.7493071)               (-4.1218259 -0.30225338 0.29928427)
  7.7740437e-05               (0.34539732 -4.5226302 -0.84257648)               (-2.3973427 0.77950518 -6.6676778)               (0.52846375 3.0081192 2.9488103)               (-2.035201 3.9845771 -0.3014221)               (0.31711062 -0.030378742 -3.5110119)               (-2.1255708 3.7557459 -3.6805189)               (-6.7490013 4.8403565 5.4883638)               (-7.6053404 -2.624022 0.52498965)               (8.4190283 5.4741564 0.23391116)               (-1.6213459 -0.64094086 -0.89344781)               (-4.4718853 2.1005503 4.0237153)               (-1.1852566 -2.6740684 -0.069691253)               (4.0071887 1.6451728 1.9291576)               (1.6232512 -0.75097484 -0.020448242)               (4.2702593 -1.7046101 6.469657)               (-1.4284977 -2.1398828 -2.709041)               (9.0887881 3.2930375 -0.44699774)               (-4.2244538 -0.1874769 0.33995842)
  8.3638675e-05               (0.30254805 -4.4755163 -0.89556018)               (-2.3398611 0.91652509 -6.7008916)               (0.41614668 2.9748433 2.9747608)               (-2.1668768 3.9513288 -0.3508389)               (0.2422741 0.11979374 -3.6457235)               (-2.1992638 3.5796991 -3.800029)               (-7.0140347 4.8196191 5.3611805)               (-7.6370581 -2.601209 0.56274818)               (8.2360537 5.49871 0.24959786)               (-1.6033448 -0.65851206 -0.97613465)               (-4.6751484 2.2190213 3.9159914)               (-1.105488 -2.6914648 -0.086869902)               (3.9861983 1.6754489 1.9594109)               (1.6000895 -0.79253172 -0.0095672229)               (4.3778937 -1.5974359 6.4187332)               (-1.3946169 -2.2046104 -2.6424317)               (9.066733 3.6779737 -0.16996455)               (-4.3202013 -0.081664416 0.37074661)
  8.9532654e-05               (0.25510218 -4.43116 -0.94846347)               (-2.2819917 1.0353229 -6.730078)               (0.30851496 2.9490159 2.9673858)               (-2.2931707 3.9234186 -0.40470851)               (0.16117739 0.2785536 -3.7824939)               (-2.2735939 3.3942076 -3.9322114)               (-7.1994392 4.7945381 5.2908847)               (-7.6927696 -2.5066786 0.61557412)               (8.0480385 5.5028291 0.27402907)               (-1.5829305 -0.67817378 -1.0630924)               (-4.8578914 2.3602314 3.8053701)               (-1.0284898 -2.7093279 -0.10445761)               (3.9636015 1.7025452 1.9913793)               (1.5783596 -0.83473796 0.00089683589)               (4.4784874 -1.4993062 6.3840922)               (-1.3619479 -2.2655463 -2.5753152)               (9.0687446 4.0306666 0.054615303)               (-4.4078209 0.0046205278 0.38950147)
  9.5423786e-05               (0.20341347 -4.3890871 -1.0010345)               (-2.2265221 1.129067 -6.7555728)               (0.21083081 2.929467 2.9275656)               (-2.4093914 3.9038515 -0.46346468)               (0.074826456 0.44206877 -3.9210558)               (-2.3492203 3.1986444 -4.0771063)               (-7.3032953 4.7665959 5.2817081)               (-7.7676239 -2.3702295 0.68043684)               (7.8567845 5.4886035 0.30511304)               (-1.5605509 -0.70044136 -1.1542721)               (-5.0217804 2.5218296 3.6934642)               (-0.95374117 -2.7274013 -0.12237807)               (3.9392133 1.7263637 2.0250948)               (1.5572477 -0.87797628 0.010676131)               (4.5644927 -1.4210393 6.3653943)               (-1.3302658 -2.3223213 -2.5080795)               (9.0989717 4.3420797 0.20519672)               (-4.4862583 0.061241958 0.39480246)
  0.00010131351               (0.14782183 -4.3487681 -1.0530214)               (-2.1749936 1.1936708 -6.7775843)               (0.12661002 2.9147689 2.8569983)               (-2.5111839 3.8959462 -0.52716505)               (-0.016486117 0.60932121 -4.0607677)               (-2.4260787 2.9923813 -4.2347874)               (-7.3268894 4.7365209 5.335827)               (-7.8539937 -2.225625 0.75131701)               (7.665256 5.4588539 0.34010223)               (-1.5367435 -0.72587292 -1.2496196)               (-5.1694992 2.7000882 3.581744)               (-0.88177761 -2.7457551 -0.14068416)               (3.9128083 1.7469277 2.0605342)               (1.5365014 -0.92184463 0.019422378)               (4.6290505 -1.3710237 6.3605642)               (-1.2989051 -2.374919 -2.4399729)               (9.157666 4.6063382 0.26794844)               (-4.5549528 0.080032476 0.38626727)
  0.00010720327               (0.088680155 -4.3096935 -1.1042112)               (-2.1273983 1.2278933 -6.7960876)               (0.057602395 2.9027382 2.7585384)               (-2.5944697 3.9029039 -0.59522897)               (-0.10845465 0.77824384 -4.2010509)               (-2.5041157 2.7751009 -4.4048365)               (-7.2744898 4.7043137 5.4531654)               (-7.9377939 -2.102879 0.81975855)               (7.4751878 5.4162936 0.37692769)               (-1.512226 -0.75524167 -1.3490844)               (-5.3042837 2.8902084 3.4712664)               (-0.81240494 -2.7642179 -0.15938143)               (3.8842583 1.7641227 2.0976077)               (1.515596 -0.96644961 0.027651079)               (4.6667618 -1.3541897 6.3673523)               (-1.2677136 -2.4233688 -2.371439)               (9.2428949 4.8208028 0.23673179)               (-4.6136813 0.056277969 0.36438426)
  0.00011309454               (0.026377315 -4.2713401 -1.1544222)               (-2.0824609 1.2328977 -6.8109139)               (0.0036392172 2.8909132 2.6358855)               (-2.6575381 3.9267731 -0.66652631)               (-0.20191679 0.94781334 -4.3416998)               (-2.5841964 2.5459386 -4.5864048)               (-7.1531522 4.6693971 5.631013)               (-8.0058987 -2.027613 0.88078731)               (7.2886463 5.3640277 0.41398977)               (-1.4879593 -0.78943952 -1.4525166)               (-5.4296643 3.0864876 3.3630617)               (-0.74536749 -2.7828579 -0.17843383)               (3.8532849 1.7779484 2.1363039)               (1.494334 -1.0118977 0.035649639)               (4.6745512 -1.3722238 6.3836287)               (-1.2359714 -2.4673578 -2.3018318)               (9.3527544 4.9859012 0.11315694)               (-4.6625285 -0.010068188 0.33067912)
  0.00011898879               (-0.038710397 -4.2332086 -1.2035033)               (-2.0381443 1.2114923 -6.8218884)               (-0.037454732 2.8766477 2.49236)               (-2.6986424 3.9694781 -0.73919625)               (-0.29540692 1.1154451 -4.4827549)               (-2.6656656 2.3052997 -4.7784316)               (-6.972551 4.6306285 5.8638354)               (-8.0462707 -2.016453 0.92749524)               (7.1069035 5.3050457 0.44939682)               (-1.4650121 -0.82947131 -1.5598542)               (-5.5486742 3.2826955 3.257894)               (-0.68129887 -2.8012003 -0.19779544)               (3.8197799 1.7883642 2.1765658)               (1.4732365 -1.0582609 0.043571802)               (4.6515155 -1.4206864 6.4052922)               (-1.2030127 -2.5071077 -2.2310001)               (9.4836527 5.1054285 -0.08948063)               (-4.7019821 -0.11418122 0.28752572)
  0.00012488749               (-0.1062083 -4.194782 -1.2513195)               (-1.992269 1.1672409 -6.8291694)               (-0.067164995 2.8579789 2.3322528)               (-2.7178403 4.0296951 -0.8102093)               (-0.38747724 1.2798568 -4.624493)               (-2.7484242 2.0532422 -4.9794707)               (-6.7448654 4.5865711 6.1429691)               (-8.0508756 -2.07395 0.95582725)               (6.9302188 5.2424014 0.47867326)               (-1.4446252 -0.87645913 -1.6708802)               (-5.6637676 3.4723024 3.1565565)               (-0.61952662 -2.8190739 -0.21751399)               (3.7835541 1.7953769 2.2182514)               (1.451029 -1.1055352 0.051737829)               (4.6005001 -1.4920312 6.4301509)               (-1.1687759 -2.5429086 -2.1580323)               (9.6320046 5.1863239 -0.35004678)               (-4.732656 -0.24704206 0.2375483)
  0.00013079212               (-0.17573689 -4.1556004 -1.2977532)               (-1.9430968 1.1038122 -6.8333787)               (-0.08984469 2.8322896 2.1599459)               (-2.7169292 4.1063252 -0.87615607)               (-0.47624754 1.4395708 -4.7671184)               (-2.8318326 1.790697 -5.1878534)               (-6.484634 4.5357266 6.4563965)               (-8.0091384 -2.1933277 0.9631153)               (6.7602571 5.1794004 0.50098294)               (-1.4281795 -0.93159986 -1.785324)               (-5.7762045 3.6490695 3.0601945)               (-0.56017908 -2.8364807 -0.23754318)               (3.7444755 1.7989255 2.2611907)               (1.4280696 -1.1537535 0.059703213)               (4.5271904 -1.5748208 6.4550619)               (-1.1328825 -2.5743006 -2.0830774)               (9.7945625 5.2377781 -0.63862952)               (-4.7554087 -0.3970918 0.18375835)
  0.00013670415               (-0.24691976 -4.11521 -1.3427088)               (-1.8896442 1.0247474 -6.8356706)               (-0.10675936 2.7984157 1.9782738)               (-2.7000005 4.195684 -0.93328847)               (-0.55994173 1.5931382 -4.910903)               (-2.9151998 1.5193871 -5.4012791)               (-6.2085384 4.4771683 6.788841)               (-7.9240193 -2.356986 0.95101846)               (6.5966334 5.1189646 0.51470986)               (-1.4170884 -0.99605857 -1.9027733)               (-5.8855306 3.8074842 2.9700335)               (-0.50292653 -2.8534378 -0.25789794)               (3.7023606 1.7990852 2.3052976)               (1.4043806 -1.2023595 0.067776905)               (4.4377165 -1.6550433 6.476066)               (-1.0950816 -2.6019647 -2.0051504)               (9.9677222 5.2725614 -0.92034268)               (-4.7711551 -0.55209003 0.128635)
    0.000142625               (-0.31941616 -4.0732083 -1.3860931)               (-1.831925 0.93335032 -6.8372847)               (-0.12176367 2.7554737 1.7896944)               (-2.6715867 4.2944428 -0.97753249)               (-0.63656627 1.7394982 -5.0564643)               (-2.9972272 1.2414378 -5.6179187)               (-5.9350668 4.4113538 7.1221683)               (-7.8017464 -2.5389403 0.92499262)               (6.43827 5.0637831 0.51893107)               (-1.4126754 -1.0709451 -2.0228052)               (-5.989621 3.9433688 2.8875498)               (-0.44766595 -2.8695742 -0.27849091)               (3.6571848 1.7959116 2.350392)               (1.3797182 -1.2521486 0.0765038)               (4.3405516 -1.7200369 6.4922157)               (-1.0546894 -2.6259537 -1.9236899)               (10.147154 5.3045418 -1.1639762)               (-4.7807853 -0.70084796 0.074388782)
  0.00014855612               (-0.39290154 -4.0292227 -1.4277916)               (-1.7708708 0.83307905 -6.8395518)               (-0.13493492 2.702921 1.5992817)               (-2.6361763 4.3985617 -1.0060622)               (-0.70391098 1.8773778 -5.2045064)               (-3.0761072 0.96042306 -5.8352193)               (-5.6835747 4.3409386 7.4364949)               (-7.6532686 -2.7099525 0.89161334)               (6.284401 5.0161813 0.51286559)               (-1.416163 -1.157166 -2.1448617)               (-6.0845977 4.054025 2.8144062)               (-0.39470721 -2.884853 -0.29945533)               (3.6088701 1.7893638 2.3962224)               (1.3547797 -1.3032284 0.086431912)               (4.2433469 -1.7574204 6.5017893)               (-1.0117125 -2.6464853 -1.8375864)               (10.32526 5.3474629 -1.3465541)               (-4.7850156 -0.83449311 0.022505809)
  0.00015449887               (-0.46708671 -3.9829428 -1.4677191)               (-1.7081604 0.72755784 -6.8431425)               (-0.14897402 2.6406409 1.4083819)               (-2.60132 4.5052953 -1.0182715)               (-0.75946286 2.0057447 -5.3556854)               (-3.149668 0.67989678 -6.0503238)               (-5.4726395 4.2716669 7.7119877)               (-7.48906 -2.8440336 0.85986741)               (6.1347953 4.9778034 0.49666397)               (-1.428479 -1.2553245 -2.2682703)               (-6.1651728 4.1385379 2.7523232)               (-0.34398099 -2.8993539 -0.32060184)               (3.5572613 1.7793912 2.4428276)               (1.3294295 -1.3550476 0.097650947)               (4.1520606 -1.7573355 6.5027274)               (-0.9667052 -2.6638952 -1.7462678)               (10.496157 5.4125838 -1.4590831)               (-4.7844445 -0.94703382 -0.025893796)
  0.00016045459               (-0.54173121 -3.9340867 -1.5057545)               (-1.6460544 0.62078633 -6.8481597)               (-0.16404399 2.5691821 1.2200363)               (-2.5719533 4.6110719 -1.0138131)               (-0.80052096 2.1234888 -5.5107261)               (-3.2149889 0.40568668 -6.2611917)               (-5.3176512 4.2127681 7.9310541)               (-7.3231487 -2.9231383 0.8346199)               (5.9885082 4.9502689 0.46891558)               (-1.4501167 -1.3655574 -2.3923067)               (-6.2254059 4.1976838 2.7027799)               (-0.29575384 -2.9128188 -0.34194755)               (3.5024238 1.7661247 2.4898032)               (1.3036066 -1.4080562 0.11032348)               (4.0709637 -1.7146365 6.4956934)               (-0.91938539 -2.6794144 -1.6496083)               (10.650622 5.5053653 -1.5046824)               (-4.7795536 -1.0354909 -0.070321161)
  0.00016642455               (-0.61665098 -3.882412 -1.5417573)               (-1.5871738 0.51689464 -6.8536867)               (-0.17948202 2.4879417 1.034131)               (-2.5525204 4.7138834 -0.9952381)               (-0.82417952 2.2297107 -5.6699669)               (-3.2688109 0.1427039 -6.4646842)               (-5.2281879 4.1767092 8.0806575)               (-7.1675129 -2.9365367 0.82110448)               (5.8439996 4.933772 0.4287447)               (-1.4810685 -1.4874644 -2.5162047)               (-6.2594244 4.2334269 2.6670567)               (-0.24993628 -2.9252226 -0.36348144)               (3.4443679 1.7494237 2.5366754)               (1.2779629 -1.4621379 0.12487739)               (4.0005684 -1.626578 6.4807533)               (-0.86981132 -2.692869 -1.5461999)               (10.778806 5.6251455 -1.4981768)               (-4.7707212 -1.0996416 -0.11063925)
  0.00017240991               (-0.69172295 -3.8277186 -1.5755688)               (-1.5343238 0.42038125 -6.8590178)               (-0.19561654 2.3979333 0.85380487)               (-2.5466241 4.8129697 -0.96674034)               (-0.82721403 2.3232736 -5.8335684)               (-3.3073393 -0.10304113 -6.6593683)               (-5.2056432 4.1784637 8.154547)               (-7.0303925 -2.8864488 0.82077794)               (5.7013285 4.9278552 0.37992909)               (-1.5207424 -1.6200744 -2.6391921)               (-6.2623402 4.2485001 2.6458898)               (-0.20621349 -2.936579 -0.38516343)               (3.3831574 1.7294489 2.583326)               (1.2525203 -1.5170584 0.14168962)               (3.9389655 -1.4946223 6.4582453)               (-0.81864567 -2.7034566 -1.4352183)               (10.874302 5.7629094 -1.4600766)               (-4.7582057 -1.1414361 -0.14695638)
  0.00017841176               (-0.7669162 -3.7698208 -1.6070181)               (-1.4903045 0.3352791 -6.8615387)               (-0.2119836 2.300662 0.6787527)               (-2.5564627 4.9074148 -0.93384835)               (-0.80594789 2.4029104 -6.0013293)               (-3.3271437 -0.32652239 -6.8436427)               (-5.2421903 4.2336781 8.1546212)               (-6.9158923 -2.781805 0.83390319)               (5.5599095 4.9331553 0.32419642)               (-1.5678867 -1.7617784 -2.7605073)               (-6.2313785 4.2456951 2.6396339)               (-0.16476137 -2.9468141 -0.40697413)               (3.3187895 1.7063067 2.6296062)               (1.2277138 -1.5732867 0.16153296)               (3.8813045 -1.3231807 6.4304734)               (-0.76681294 -2.7110288 -1.3165059)               (10.932423 5.9054482 -1.4066933)               (-4.7421384 -1.1641634 -0.17942281)
  0.00018443108               (-0.84225616 -3.7085574 -1.6359185)               (-1.4578528 0.26555204 -6.8608522)               (-0.22772799 2.1963611 0.50894052)               (-2.5823671 4.9973961 -0.90267135)               (-0.75642534 2.4667931 -6.1724749)               (-3.3245658 -0.52383147 -7.0155344)               (-5.3218965 4.3565362 8.0906194)               (-6.8239505 -2.6407852 0.85806123)               (5.4193099 4.9489979 0.2631977)               (-1.6205713 -1.9104585 -2.8794245)               (-6.1661451 4.2272083 2.6480903)               (-0.12384873 -2.9559284 -0.42878522)               (3.2513891 1.6801122 2.6750775)               (1.2039366 -1.6300789 0.18506869)               (3.822917 -1.1180935 6.3974892)               (-0.71498636 -2.7156167 -1.1887839)               (10.952074 6.0377892 -1.3481442)               (-4.7227511 -1.1718068 -0.20840745)
  0.00019046871               (-0.91785936 -3.643763 -1.662049)               (-1.4392274 0.21433434 -6.8562631)               (-0.2421608 2.0870963 0.34479489)               (-2.6248675 5.0828987 -0.87932077)               (-0.67467628 2.5128897 -6.3458272)               (-3.2979451 -0.69145776 -7.1742861)               (-5.423738 4.5579307 7.9778918)               (-6.7530059 -2.48258 0.88829675)               (5.2792638 4.9746647 0.19849023)               (-1.6763285 -2.0635334 -2.9952293)               (-6.0686084 4.1942725 2.670622)               (-0.084420632 -2.9637918 -0.45062999)               (3.1811391 1.6509677 2.7196023)               (1.1804837 -1.6869171 0.21157857)               (3.7567644 -0.8864621 6.3623971)               (-0.66210664 -2.7174788 -1.0534928)               (10.937239 6.1461763 -1.2872491)               (-4.7002381 -1.168333 -0.23412227)
  0.00019652536               (-0.99389619 -3.5752838 -1.6852249)               (-1.4360251 0.18424577 -6.8475195)               (-0.25427193 1.9731163 0.18712416)               (-2.6831013 5.1620267 -0.86734617)               (-0.55748533 2.5393898 -6.5197252)               (-3.2466978 -0.82836324 -7.3189801)               (-5.5251891 4.8446416 7.8341054)               (-6.6993927 -2.3259766 0.92006338)               (5.140055 5.0085705 0.1309217)               (-1.732173 -2.2181801 -3.1072681)               (-5.9427938 4.1470428 2.706215)               (-0.047611392 -2.9706288 -0.47250528)               (3.1081889 1.618909 2.7628069)               (1.1578584 -1.7440013 0.24143755)               (3.6764234 -0.63516761 6.3276244)               (-0.60945236 -2.7165926 -0.90978372)               (10.89488 6.2204284 -1.2256355)               (-4.6747392 -1.1572729 -0.25673594)