# Probe 0 (0 0.005 0)
# Probe 1 (-0.01 -0.005 0)
# Probe 2 (0.01 -0.005 0)
# Probe 3 (0 -0.005 0.01)
# Probe 4 (0 -0.005 -0.01)
# Probe 5 (-0.01 0.005 0)
# Probe 6 (0.01 0.005 0)
# Probe 7 (0 0.005 0.01)
# Probe 8 (0 0.005 -0.01)
# Probe 9 (-0.005 0.005 0)
# Probe 10 (0.005 0.005 0)
# Probe 11 (0 0.005 0.005)
# Probe 12 (0 0.005 -0.005)
# Probe 13 (-0.01 0.015 0)
# Probe 14 (0.01 0.015 0)
# Probe 15 (0 0.015 0.01)
# Probe 16 (0 0.015 -0.01)
# Probe 17 (0 0.015 0)
#         Probe               0               1               2               3               4               5               6               7               8               9              10              11              12              13              14              15              16              17
#          Time
  6.5777831e-06       100124.63       100063.15       100082.05       100144.65       100149.52       100115.81       100132.17       100096.42       100106.61       100108.04       100139.11       100114.46       100120.84        100159.2       100133.08       100122.51       100133.39       100128.18
  1.3225918e-05       100123.08       100066.93       100075.98       100142.42       100147.12       100113.76       100127.84          100095       100104.92       100106.14       100137.28       100112.86       100119.27       100158.18        100131.2        100120.8        100131.7       100126.35
   1.987144e-05       100122.65       100072.06       100070.93       100141.53       100145.98       100113.01       100125.12       100094.94       100104.56       100105.49       100136.67       100112.48       100118.88       100158.39       100130.65       100120.36       100131.33       100125.83
  2.6521283e-05       100122.38       100076.89       100065.78       100140.95       100145.06       100112.45       100122.92       100095.15       100104.46       100105.05       100136.26       100112.32       100118.68        100158.8       100130.34       100120.18        100131.2       100125.56
  3.3181218e-05       100122.29       100081.48       100060.57       100140.67       100144.31       100112.08       100121.08       100095.57       100104.64       100104.86       100136.04       100112.34       100118.66       100159.41        100130.2       100120.11       100131.25       100125.48
  3.9857201e-05       100122.31        100084.5        100055.3       100140.63       100143.66       100111.79       100119.43       100096.17       100104.94       100104.76       100135.95        100112.5       100118.75       100160.14       100130.17        100120.3        100131.4       100125.53
  4.6554161e-05        100122.4       100086.22       100049.94       100140.78       100143.05       100111.56        100117.8       100096.92       100105.36       100104.77       100135.93       100112.75       100118.92       100160.72       100130.18       100120.43       100131.64       100125.65
  5.3274083e-05       100122.53       100086.86       100044.36       100141.04       100142.45       100111.34       100116.16        100097.7        100105.8        100104.8       100135.95       100113.03       100119.13       100161.37       100130.21       100120.66       100131.89       100125.82
  6.0023681e-05       100122.67       100086.74        100038.5       100141.35        100141.8       100111.12       100114.52       100098.53        100106.3       100104.85       100135.98       100113.34       100119.33       100162.13       100130.22       100120.89       100132.15          100126
  6.6810502e-05       100122.84       100085.93       100032.25       100141.65       100141.17       100110.91        100112.9        100099.4       100106.82       100104.94       100136.03       100113.67       100119.54       100162.87       100130.22       100121.17       100132.39       100126.21
  7.3642376e-05       100123.01       100085.53       100025.67       100141.92       100140.49       100110.72       100111.28       100100.31       100107.35       100105.02       100136.09       100114.02       100119.78       100163.24       100130.23       100121.45       100132.65       100126.42
  8.0527131e-05       100123.17       100085.09        100018.9        100142.1       100139.81       100110.53       100109.68       100101.22       100107.87       100105.07       100136.14       100114.36       100120.01        100163.8       100130.21       100121.73       100132.91       100126.63
  8.7472263e-05       100123.35       100084.39       100012.15       100142.23       100139.14       100110.38       100108.11       100102.17       100108.41       100105.16       100136.19       100114.71       100120.24       100164.44       100130.21          100122       100133.08       100126.85
  9.4484632e-05        100123.5       100083.14       100005.53       100142.32       100138.45       100110.24       100106.71       100103.09       100108.91       100105.18       100136.21       100115.04       100120.45       100164.84        100130.2       100122.27       100133.22       100127.04
  0.00010157017       100123.65       100081.19       99999.458       100142.37       100137.76       100110.14       100105.59       100104.05       100109.44       100105.21       100136.23       100115.38       100120.66       100165.26        100130.2       100122.54       100133.29       100127.24
  0.00010873369       100123.79       100078.57       99994.015       100142.39       100137.07       100110.07       100104.86       100104.97       100109.96        100105.2       100136.23       100115.69       100120.86        100165.4       100130.21       100122.78       100133.38       100127.41
  0.00011597885       100123.91       100075.84       99989.614       100142.38       100136.35       100110.01       100104.64       100105.88       100110.47       100105.18       100136.18       100115.99       100121.05       100165.58       100130.24       100123.02       100133.37       100127.58
  0.00012330815       100124.01       100073.33        99986.46       100142.37       100135.58       100109.93       100104.94       100106.78       100110.95       100105.12       100136.11       100116.27        100121.2       100165.81       100130.26       100123.27       100133.32       100127.71
  0.00013070821        100124.1       100071.22       99984.257       100142.44       100134.87       100109.85       100105.78       100107.69       100111.47       100105.02       100136.05       100116.54       100121.36       100165.89       100130.33       100123.49       100133.27       100127.85
  0.00013813007       100124.17       100069.41       99983.848       100142.58       100134.11       100109.73        100107.2       100108.56       100111.97       100104.91       100135.93       100116.77       100121.48       100165.84       100130.36       100123.64        100133.1       100127.93
  0.00014556992       100124.24       100067.82       99984.845       100142.85       100133.42       100109.67       100108.94       100109.42       100112.51       100104.78       100135.82       100117.01        100121.6       100165.76       100130.44        100123.8       100132.93       100128.03
   0.0001530294       100124.32       100066.26       99987.113       100143.19       100132.71       100109.66       100111.01       100110.27       100113.06       100104.63       100135.69       100117.24       100121.72       100165.75       100130.55       100123.96       100132.67       100128.12
  0.00016051189        100124.4       100064.76       99990.296       100143.57       100132.12        100109.7       100113.36       100111.15       100113.63       100104.47       100135.57       100117.48       100121.83       100165.47        100130.7        100124.1       100132.46        100128.2
  0.00016802212       100124.47        100063.1       99994.324       100143.93       100131.33       100109.94       100115.73       100111.99       100114.26        100104.3       100135.43        100117.7       100121.95        100165.2       100130.89       100124.24       100132.14       100128.28
  0.00017556573       100124.54        100061.8       99998.772       100144.28       100130.52       100110.28       100118.13       100112.84       100114.92       100104.11       100135.28       100117.92       100122.06       100164.97        100131.1       100124.37       100131.85       100128.36
  0.00018314893       100124.59       100060.52       100003.53       100144.58       100129.57       100110.78       100120.52       100113.65       100115.57        100103.9        100135.1       100118.11       100122.14       100164.65       100131.32       100124.47       100131.42       100128.41
  0.00019077817       100124.62       100059.28        100008.6       100144.84       100128.39       100111.42       100122.69       100114.43       100116.22       100103.66        100134.9       100118.28        100122.2       100164.26       100131.51       100124.49       100131.02       100128.43
   0.0001984599       100124.67        100058.4       100014.11        100145.1          100127       100112.16       100124.76       100115.26       100116.97       100103.45       100134.72       100118.48       100122.28       100163.87       100131.78       100124.59       100130.52       100128.48
  0.00020620052        100124.7       100057.55       100019.92       100145.31       100125.35       100112.78       100126.77       100116.02       100117.69       100103.21       100134.51       100118.65       100122.36       100163.42       100132.03       100124.65       100130.09       100128.52
  0.00021400626        100124.7       100057.04       100025.89       100145.46       100123.44       100113.21       100128.63       100116.76       100118.41       100102.94       100134.27        100118.8       100122.41       100162.96       100132.27       100124.68       100129.52       100128.53
  0.00022188328       100124.73       100056.52       100032.05       100145.61        100121.3       100113.46       100130.37       100117.53       100119.21       100102.75       100134.06       100118.98       100122.49       100162.46       100132.58       100124.68       100128.95       100128.57
  0.00022983765       100124.73          100056       100038.19       100145.73       100118.85       100113.59       100131.94       100118.27       100120.03        100102.5       100133.82       100119.14       100122.54       100161.92       100132.86       100124.74       100128.28       100128.57
  0.00023778632       100124.85       100055.52       100044.28       100145.98       100116.39        100114.1       100133.28       100119.11        100120.8       100102.41       100133.73       100119.43       100122.74        100161.5       100133.28       100124.85       100127.75       100128.73
  0.00024546109        100124.7       100054.93       100049.65       100145.99       100113.71        100114.9       100133.97       100119.65       100121.37       100102.08       100133.37       100119.45       100122.67        100160.8       100133.45       100124.65       100126.88        100128.6
  0.00025288128       100124.63       100054.52       100054.65       100146.12       100111.22       100116.61       100134.18       100120.22       100122.02       100101.85       100133.12       100119.55        100122.7       100160.11        100133.7       100124.49       100126.23       100128.57
  0.00026009643       100124.58       100054.27       100059.37       100146.32       100108.89       100118.65       100133.98        100120.8       100122.68        100101.7        100132.9       100119.67       100122.74        100159.4       100133.98       100124.36       100125.53       100128.55
  0.00026715824       100124.52        100054.1       100063.93       100146.58       100106.64       100121.07       100133.47       100121.34       100123.28        100101.6       100132.68        100119.8       100122.79       100158.74       100134.26       100124.24       100124.86       100128.56
  0.00027411717        100124.5       100054.01        100068.5       100146.92        100104.5       100122.97       100132.68       100121.92       100123.92       100101.52       100132.53       100119.97       100122.89       100158.01        100134.6       100124.16       100124.28       100128.62
  0.00028102049       100124.43       100053.82       100073.05       100147.24       100102.35       100124.06       100131.78       100122.44       100124.44       100101.51       100132.36        100120.1       100122.93       100157.26        100134.9       100123.93       100123.65       100128.63
  0.00028791154       100124.38       100053.54       100077.66        100147.7       100100.22       100124.35       100130.83       100122.97       100124.98       100101.47       100132.21       100120.26       100123.01        100156.5        100135.2       100123.72          100123       100128.67
  0.00029482584       100124.38       100053.28        100082.3        100148.2       100098.12       100124.05       100130.14       100123.54       100125.54       100101.49       100132.13       100120.48       100123.15       100155.71       100135.58       100123.63       100122.45       100128.79
  0.00030166749       100124.27       100052.88       100086.68        100148.6       100095.92       100123.17        100129.6       100123.99       100125.96       100101.44       100131.95       100120.59        100123.2       100154.79       100135.81       100123.23       100121.81       100128.79
  0.00030841139       100124.11       100052.46       100090.73       100148.96        100093.7       100122.01        100129.4       100124.37       100126.31       100101.34       100131.76       100120.66        100123.2       100153.82          100136       100122.85       100121.16       100128.76
  0.00031509489       100123.98       100052.06       100094.54       100149.42       100091.58       100120.66       100129.54       100124.75       100126.65       100101.31       100131.61       100120.75       100123.24       100152.83       100136.21       100122.54       100120.56       100128.75
  0.00032175196       100123.85       100051.62        100098.1       100149.87       100089.56       100119.49       100129.92       100125.14       100126.94       100101.29       100131.46       100120.86       100123.29       100151.83       100136.44       100122.26          100120       100128.77
  0.00032841337       100123.72       100051.21       100101.43       100150.41       100087.64       100118.57       100130.56       100125.53       100127.24        100101.3       100131.35       100120.98       100123.34       100150.78       100136.66       100121.73       100119.48        100128.8
  0.00033510684       100123.58       100050.72       100104.57       100150.94       100085.83       100117.96       100131.31       100125.86       100127.51       100101.29       100131.24       100121.07       100123.37       100149.68       100136.85       100121.37        100118.9       100128.81
  0.00034185231       100123.43       100050.32       100107.57       100151.52       100084.12       100117.76       100132.12       100126.19       100127.74        100101.3       100131.15       100121.17       100123.42       100148.54       100137.06       100120.94       100118.41       100128.83
  0.00034866786       100123.27       100049.97       100110.44       100152.09       100082.52       100117.85        100132.9       100126.51       100127.99        100101.3       100131.06       100121.27       100123.46       100147.34       100137.24       100120.44       100117.87       100128.85
  0.00035557371       100123.09       100049.73       100113.17       100152.61       100080.99        100118.2       100133.53        100126.8       100128.23       100101.32       100130.96       100121.35        100123.5       100146.05       100137.43       100119.94       100117.44       100128.86
  0.00036258681       100122.91       100049.59       100115.76       100153.11       100079.55       100118.63       100133.99       100127.11       100128.54       100101.37       100130.89       100121.45       100123.54       100144.73       100137.58       100119.38       100116.94       100128.88
  0.00036972006       100122.71       100049.51       100118.18       100153.54       100078.17       100119.09        100134.2       100127.37       100128.81       100101.38        100130.8       100121.52       100123.57       100143.35       100137.76       100118.81       100116.47       100128.89
  0.00037698186       100122.51       100049.47       100120.44       100153.96       100076.88       100119.44       100134.23       100127.65       100129.09       100101.44       100130.76       100121.61        100123.6       100141.91       100137.93        100118.2       100116.06       100128.91
  0.00038437424       100122.32       100049.43       100122.57       100154.35       100075.74       100119.64       100134.13       100127.93       100129.45        100101.5       100130.72       100121.72       100123.66       100140.47       100138.13       100117.62       100115.63       100128.95
  0.00039177617       100122.11       100049.23       100124.55       100154.72       100074.78        100119.8       100133.91       100128.23       100129.79       100101.55       100130.66       100121.83       100123.72       100139.05       100138.29       100116.94       100115.23       100128.99
  0.00039911735       100121.83       100048.79       100126.35       100154.95       100073.93        100119.9       100133.42       100128.43       100130.12       100101.59       100130.57       100121.87       100123.73        100137.6        100138.4       100116.27       100114.84       100128.96
  0.00040641163       100121.55        100048.2       100128.15       100155.15       100073.43       100120.14       100132.83       100128.66       100130.49       100101.63       100130.49       100121.93       100123.74       100136.17       100138.53       100115.55       100114.48       100128.96
  0.00041367179       100121.29       100047.48       100129.98       100155.35       100073.12       100120.54       100132.13       100128.92       100130.93       100101.73       100130.46       100122.03        100123.8       100134.81       100138.69       100114.86       100114.15          100129
  0.00042090871          100121       100046.71       100131.81       100155.49       100073.02       100120.96       100131.26       100129.17       100131.36       100101.82       100130.42       100122.13       100123.86       100133.43       100138.83       100114.16       100113.85       100129.03
  0.00042813141       100120.71       100046.01       100133.58       100155.59       100073.22       100121.35       100130.38       100129.42        100131.8       100101.95        100130.4       100122.23       100123.92       100132.03       100138.99       100113.42       100113.61       100129.07
   0.0004353472       100120.39       100045.51       100135.17        100155.6       100073.71       100121.64       100129.47       100129.68       100132.26       100102.04       100130.35       100122.33       100123.97       100130.57       100139.13       100112.71        100113.4        100129.1
  0.00044256203       100120.04       100045.29       100136.41       100155.55       100074.48       100121.81       100128.64       100129.91       100132.71       100102.14       100130.27       100122.42       100124.02        100129.1       100139.26       100111.93       100113.15       100129.15
  0.00044978036        100119.7       100045.44       100137.19       100155.48       100075.27       100121.87       100127.94       100130.17        100133.2       100102.27       100130.29       100122.54       100124.09       100127.63        100139.4       100111.26       100112.93       100129.19
  0.00045700497       100119.33       100045.87       100137.31       100155.36        100076.1       100121.84       100127.34       100130.42       100133.61       100102.39       100130.25       100122.65       100124.14       100126.18       100139.54       100110.49       100112.69       100129.22
  0.00046423364       100118.94       100046.56       100136.66       100155.23       100076.93       100121.72       100126.92       100130.62       100134.05       100102.48       100130.25       100122.75       100124.19        100124.8       100139.65       100109.89       100112.47       100129.24
  0.00047146429       100118.57       100047.44       100135.21       100155.12       100077.77        100121.5       100126.62       100130.84       100134.49        100102.6       100130.19       100122.86       100124.23        100123.6       100139.77       100109.22       100112.22       100129.26
  0.00047869506       100118.22       100048.43       100133.01          100155       100078.55       100121.25       100126.26       100131.06       100134.91       100102.74       100130.15       100122.98        100124.3       100122.64       100139.91       100108.39          100112        100129.3
  0.00048592271       100117.87       100049.52       100130.16       100154.84        100079.2       100120.85       100125.79       100131.25       100135.26       100102.85        100130.1        100123.1       100124.34        100121.9       100140.05       100107.74       100111.78       100129.32
  0.00049314281       100117.55       100050.65       100126.89       100154.73       100079.78       100120.39       100125.18       100131.47       100135.64          100103       100130.11       100123.24       100124.42       100121.38       100140.18       100107.05       100111.57       100129.36
  0.00050034989       100117.26       100051.79       100123.18       100154.66       100080.24       100119.82        100124.5       100131.66       100135.96       100103.13        100130.1       100123.39       100124.48       100121.05       100140.32       100106.38       100111.39        100129.4
  0.00050753824       100116.96       100052.88       100119.12       100154.59       100080.64       100119.13       100123.75       100131.83       100136.27       100103.23       100130.07       100123.52       100124.54       100120.81       100140.45       100105.65       100111.14       100129.41
  0.00051470234       100116.72       100053.91       100114.64       100154.39       100081.01       100118.38       100123.03       100132.02       100136.57       100103.36       100130.08       100123.67        100124.6       100120.67       100140.58       100105.12       100110.95       100129.45
  0.00052183738       100116.48       100054.82       100109.62       100154.09       100081.33       100117.56       100122.34       100132.18        100136.8       100103.49       100130.04        100123.8       100124.65       100120.52       100140.71        100104.4       100110.79       100129.47
  0.00052893959       100116.27       100055.64        100104.5       100153.98       100081.66       100116.63       100121.76       100132.36       100136.99       100103.62       100130.03       100123.95       100124.72       100120.34       100140.84       100103.91       100110.59       100129.49
  0.00053600619       100116.06       100056.39       100099.51       100153.52       100081.95       100115.55       100121.37        100132.5       100137.11       100103.68       100129.98       100124.06       100124.75       100120.13       100140.95       100103.35       100110.37        100129.5
  0.00054303636       100115.88       100057.19       100095.42       100153.02       100082.24       100114.38       100121.23       100132.65       100137.32       100103.81       100129.94       100124.19       100124.81        100119.8       100141.06       100102.88       100110.18       100129.52
  0.00055003142       100115.75       100058.12       100093.22        100152.5       100082.65       100113.13       100121.32       100132.81       100137.54       100103.92       100129.92       100124.33       100124.87       100119.36       100141.18       100102.44       100109.95       100129.54
  0.00055699481       100115.62       100059.19       100093.22       100151.96       100082.97       100111.77        100121.6       100132.95       100137.64       100103.99       100129.86       100124.45       100124.92       100118.73        100141.3       100102.12       100109.79       100129.55
  0.00056393201       100115.53        100060.4       100096.31       100151.44       100083.42       100110.28       100122.09        100133.1       100137.95       100104.11       100129.83       100124.58       100124.99       100117.88       100141.42       100101.78       100109.64       100129.57
  0.00057085033       100115.46       100061.65       100102.04       100150.94       100083.85       100108.73       100122.66       100133.23       100138.05       100104.18       100129.77        100124.7       100125.04       100116.77       100141.51       100101.46       100109.49       100129.59
  0.00057775863       100115.42       100062.84       100109.23       100150.47       100084.68       100107.05       100123.29       100133.38       100138.22       100104.27       100129.72       100124.83       100125.12       100115.38       100141.63       100101.31       100109.32       100129.61
   0.0005846672        100115.4       100063.89       100116.47       100149.99       100085.43        100105.3       100123.87       100133.52       100138.25       100104.35       100129.67       100124.95        100125.2        100113.7       100141.73       100101.39        100109.2       100129.64
  0.00059158754        100115.4       100064.72       100122.65       100149.52        100086.4       100103.53       100124.31       100133.65       100138.42       100104.43       100129.61       100125.07       100125.26       100111.76       100141.84       100101.52       100109.09       100129.66
  0.00059853227        100115.4       100065.21        100126.9       100149.01       100087.41       100101.64       100124.61       100133.77       100138.45       100104.47       100129.54       100125.17       100125.32       100109.52       100141.92       100101.68       100108.97       100129.66
  0.00060551496       100115.43       100065.27       100129.15       100148.54       100088.55       100099.75       100124.84       100133.89       100138.52       100104.52       100129.48       100125.27       100125.41       100107.13       100142.01       100101.82       100108.76       100129.67
  0.00061255011       100115.48       100064.84       100130.08       100148.11       100089.74       100097.84       100125.01          100134        100138.7       100104.57       100129.45       100125.37       100125.48       100104.55       100142.09       100102.25       100108.75       100129.68
  0.00061962593       100115.57       100063.84       100130.69       100147.84       100091.04       100096.05       100125.12       100134.15       100138.48       100104.64        100129.4       100125.51       100125.57       100101.92       100142.22       100102.76       100108.71       100129.74
  0.00062665924       100115.61        100062.2       100131.46       100147.65       100092.35       100094.23       100125.17       100134.23       100138.23       100104.64       100129.31       100125.58       100125.61       100099.22       100142.26        100103.1       100108.69       100129.71
  0.00063364967       100115.65       100060.14        100132.3       100147.65       100093.71       100092.49       100125.22       100134.29       100138.13       100104.62       100129.22       100125.64       100125.66       100096.55        100142.3       100103.49       100108.63       100129.68
  0.00064060587       100115.72       100057.95       100132.99       100147.84       100095.15       100090.86       100125.21       100134.39       100137.94       100104.64       100129.12       100125.73        100125.7       100094.09       100142.36       100103.94       100108.61       100129.67
  0.00064753763        100115.8       100056.03       100133.15       100148.26        100096.7       100089.29       100125.24       100134.48       100137.81       100104.65       100129.03       100125.82       100125.76       100091.91       100142.43       100104.46       100108.68       100129.67
  0.00065445564       100115.89       100054.66       100132.85       100148.62       100098.28       100087.74        100125.2       100134.58       100137.73       100104.69       100128.98       100125.92       100125.85       100090.16       100142.49       100104.96       100108.74       100129.68
  0.00066137127       100115.97       100054.06       100132.39       100148.98       100099.91       100086.24       100125.15       100134.67       100137.53       100104.71       100128.89       100126.01       100125.91       100088.95       100142.55       100105.28       100108.84       100129.68
  0.00066829647       100116.07        100054.4       100131.89       100149.09       100101.57       100084.83       100125.05       100134.78       100137.45       100104.77       100128.84       100126.12       100125.99       100088.37       100142.62       100105.75       100108.95        100129.7
   0.0006752437       100116.13       100055.59       100131.22        100148.7       100103.28       100083.37       100124.97       100134.85        100137.3        100104.8       100128.76        100126.2       100126.06       100088.28       100142.66       100106.21       100109.14       100129.69
  0.00068222579       100116.19       100057.32       100130.36       100148.12       100104.97       100081.98       100124.86       100134.94       100137.16       100104.81       100128.69       100126.29       100126.12       100088.65       100142.71       100106.49       100109.36       100129.69