# Probe 0 (0 0.005 0)
# Probe 1 (-0.01 -0.005 0)
# Probe 2 (0.01 -0.005 0)
# Probe 3 (0 -0.005 0.01)
# Probe 4 (0 -0.005 -0.01)
# Probe 5 (-0.01 0.005 0)
# Probe 6 (0.01 0.005 0)
# Probe 7 (0 0.005 0.01)
# Probe 8 (0 0.005 -0.01)
# Probe 9 (-0.005 0.005 0)
# Probe 10 (0.005 0.005 0)
# Probe 11 (0 0.005 0.005)
# Probe 12 (0 0.005 -0.005)
# Probe 13 (-0.01 0.015 0)
# Probe 14 (0.01 0.015 0)
# Probe 15 (0 0.015 0.01)
# Probe 16 (0 0.015 -0.01)
# Probe 17 (0 0.015 0)
#         Probe               0               1               2               3               4               5               6               7               8               9              10              11              12              13              14              15              16              17
#          Time
  5.9970995e-06       100116.02       100141.33       100126.61       100121.76       100073.64       100125.05        100128.1       100121.77       100123.67       100123.09       100117.54       100119.81       100119.81       100113.27       100128.33       100120.82       100115.99       100113.48
  1.1963118e-05       100114.09       100139.31       100124.76       100119.77       100071.93       100122.78       100125.62       100119.41       100121.53       100121.26       100115.55       100117.73       100117.96       100111.21       100126.71       100118.11       100114.04       100111.51
  1.7905389e-05       100112.42       100137.74       100123.16       100118.11       100070.56       100120.86       100123.44       100117.38        100119.7       100119.74       100113.75       100115.92       100116.29        100109.5        100125.4       100115.84          100112       100109.93
   2.382551e-05       100110.91        100136.4       100121.66       100116.65       100069.44       100119.11        100121.5       100115.49       100118.08       100118.41       100112.08       100114.33       100114.75       100107.93       100124.26       100113.82       100110.13       100108.59
  2.9725862e-05       100109.73       100135.41       100120.48       100115.55       100068.71       100117.67       100119.93       100114.01       100116.87       100117.43       100110.68       100113.08       100113.52       100106.82       100123.49       100112.11        100108.5       100107.65
  3.5608426e-05       100108.85       100134.74       100119.59       100114.81       100068.37       100116.65       100118.77       100112.65       100116.03        100116.8       100109.55       100112.18       100112.61       100105.99       100123.06       100110.79        100107.2       100107.04
  4.1474934e-05       100108.26       100134.39       100118.96        100114.4       100068.41       100115.88       100117.97       100111.61        100115.5       100116.46       100108.66       100111.57       100111.98       100105.48       100122.82       100109.81       100106.09       100106.74
  4.7327047e-05       100107.86       100134.21       100118.52       100114.18       100068.68       100115.35       100117.46       100110.69       100115.23       100116.32       100107.94       100111.18       100111.54       100105.19       100122.86          100109       100105.26       100106.65
  5.3166358e-05       100107.59       100134.21       100118.19       100114.16       100069.18       100114.98       100117.16       100110.38        100115.1       100116.33       100107.32       100110.93       100111.22       100104.98       100122.92       100108.41       100104.55        100106.7
  5.8994391e-05       100107.42        100134.3       100117.95       100114.25       100069.79       100114.68       100117.05       100109.84       100115.06       100116.44       100106.79        100110.8       100111.03       100104.88       100123.02       100107.91       100103.62       100106.86
  6.4812639e-05        100107.3       100134.44       100117.76       100114.43       100070.53       100114.48       100117.06       100109.24       100115.04       100116.63       100106.27       100110.74        100110.9       100104.91       100123.17       100107.49       100103.29       100107.08
  7.0622566e-05       100107.22       100134.64       100117.56       100114.64       100071.33       100114.38       100117.15        100108.7        100115.1       100116.84       100105.81       100110.71       100110.79       100104.91       100123.35       100107.15       100102.67       100107.35
  7.6425613e-05       100107.15       100134.87       100117.36        100114.9       100072.21       100114.31       100117.32       100108.48       100115.22       100117.08       100105.31       100110.76       100110.71          100105       100123.48       100106.87       100102.39       100107.64
  8.2223223e-05       100107.11       100135.11       100117.18       100115.16       100073.14       100114.27       100117.53       100108.07       100115.27       100117.34       100104.85       100110.78       100110.65       100105.09       100123.72       100106.61       100101.95       100107.97
   8.801685e-05       100107.06       100135.36       100116.99       100115.43       100074.09       100114.26       100117.73       100107.62        100115.3        100117.6       100104.41       100110.83       100110.58       100105.12        100123.8       100106.42       100101.52       100108.29
  9.3807939e-05       100107.01       100135.58       100116.74       100115.68       100075.05       100114.24        100117.9       100107.53       100115.26       100117.84       100103.94       100110.87       100110.52       100105.23       100123.94       100106.21       100101.06        100108.6
  9.9597954e-05       100106.98       100135.83       100116.46       100115.93       100076.01        100114.3       100118.06       100107.51       100115.28       100118.11       100103.47       100110.94       100110.48       100105.37       100124.09       100106.05       100100.69       100108.93
  0.00010538837       100106.93       100136.05       100116.15       100116.15       100076.96       100114.32       100118.13       100107.38       100115.26       100118.34          100103          100111       100110.41       100105.46       100124.16       100105.87       100100.23       100109.24
  0.00011118069       100106.87       100136.27       100115.82        100116.4       100077.98       100114.36       100118.13       100107.34       100115.22       100118.58       100102.51       100111.05       100110.35       100105.58       100124.25       100105.75       100099.88       100109.52
  0.00011697638       100106.83       100136.47       100115.43       100116.61       100078.94       100114.41       100118.08       100107.45       100115.19       100118.81       100102.04       100111.11        100110.3        100105.7       100124.29       100105.62        100099.5       100109.83
  0.00012277695       100106.79       100136.67       100114.96       100116.77        100079.9       100114.48       100117.92       100107.59       100115.06       100119.04       100101.55       100111.22       100110.24       100105.83       100124.23       100105.51        100099.2       100110.09
  0.00012858389       100106.73       100136.84       100114.53       100116.94       100080.88        100114.5        100117.7       100107.86       100114.97       100119.22       100101.03       100111.27       100110.16       100105.97       100124.23       100105.44       100098.93       100110.34
  0.00013439867       100106.68       100137.02       100113.95       100117.12       100081.89        100114.5       100117.42       100108.27       100114.91       100119.41        100100.5       100111.32       100110.09       100106.09       100124.16       100105.32       100098.68       100110.59
  0.00014022276       100106.62       100137.16       100113.39       100117.31       100082.88        100114.5       100117.06       100108.68       100114.78       100119.58       100099.94       100111.38       100110.02       100106.24       100124.07       100105.28       100098.51       100110.82
  0.00014605757       100106.58       100137.31       100112.78       100117.48       100083.92       100114.36        100116.7       100109.14       100114.59       100119.73       100099.34       100111.44       100109.94       100106.37       100123.97        100105.2        100098.4       100111.04
   0.0001519045       100106.53       100137.48       100112.15       100117.65       100084.96       100114.42       100116.34       100109.67       100114.37       100119.87       100098.71       100111.49       100109.88       100106.53       100123.74       100105.16       100098.23       100111.25
  0.00015776489        100106.5       100137.61       100111.48       100117.87       100086.01       100114.42       100116.01       100110.15       100114.15          100120       100098.06       100111.57       100109.81       100106.68       100123.61       100105.09       100098.15       100111.45
  0.00016364001       100106.46       100137.74       100110.79       100118.13       100087.05       100114.38        100115.7        100110.6       100114.16       100120.09       100097.37       100111.62       100109.74       100106.83       100123.51       100105.01       100098.12       100111.63
  0.00016953107       100106.42       100137.87       100109.99        100118.4       100088.08       100114.35       100115.44       100110.99       100113.91       100120.17       100096.66       100111.68       100109.66       100106.96       100123.25       100104.95       100098.09        100111.8
  0.00017543916       100106.39          100138       100109.18       100118.72       100089.12       100114.32       100115.26       100111.37       100113.66       100120.23       100095.93       100111.72        100109.6        100107.1       100123.17       100104.95       100098.04       100111.98
  0.00018136527       100106.37       100138.13       100108.33       100119.09       100090.15       100114.35       100115.13        100111.7       100113.41       100120.28        100095.2       100111.77       100109.54        100107.2       100122.84          100105       100097.94       100112.17
  0.00018731026       100106.36       100138.25       100107.46        100119.5       100091.18       100114.39          100115       100111.97       100113.13        100120.3       100094.49       100111.83       100109.49       100107.29       100122.57       100104.99       100097.77       100112.35
  0.00019327486       100106.37       100138.37       100106.52       100119.94       100092.22       100114.47       100114.83       100112.23       100112.93       100120.33        100093.8       100111.87       100109.45       100107.33       100122.27       100105.08        100097.9       100112.52
  0.00019925964       100106.36       100138.48       100105.54        100120.4       100093.24       100114.57       100114.57       100112.47       100112.66       100120.32       100093.11       100111.92       100109.39       100107.35          100122       100105.25       100097.87       100112.69
    0.000205265       100106.38       100138.59       100104.53       100120.94       100094.26       100114.75       100114.22       100112.64       100112.49       100120.32       100092.48       100111.97       100109.35       100107.42       100121.93       100105.29       100097.77       100112.86
  0.00021129116       100106.42        100138.7       100103.49       100121.47       100095.28       100114.94       100113.76       100112.83       100112.33       100120.32       100091.91       100112.03       100109.34       100107.43       100121.56       100105.36       100097.76       100113.03
  0.00021733813       100106.46        100138.8       100102.41       100121.95       100096.28       100115.19       100113.14       100113.01       100112.13       100120.32       100091.39        100112.1        100109.3       100107.43       100121.34       100105.61       100097.73        100113.2
  0.00022340573       100106.52       100138.88       100101.24       100122.44       100097.34       100115.46       100112.42       100113.19       100111.94       100120.31       100090.94       100112.15       100109.28       100107.37       100121.01        100105.9       100097.81       100113.36
  0.00022949357       100106.56       100138.94       100100.05       100122.87       100098.23       100115.74       100111.58       100113.37       100111.76       100120.28       100090.53       100112.18       100109.24       100107.33       100120.79       100106.05       100097.84        100113.5
  0.00023560112       100106.64       100139.01       100098.86       100123.25       100099.22       100116.06       100110.66       100113.54       100111.59       100120.27       100090.25       100112.23       100109.23       100107.35       100120.53       100106.43       100097.84       100113.68
  0.00024172754       100106.72       100139.07       100097.65       100123.61       100100.19       100116.33       100109.61       100113.71       100111.39       100120.26       100090.02       100112.27        100109.2       100107.41       100120.38       100106.72       100097.89       100113.83
  0.00024787184       100106.83       100139.12       100096.44       100123.93       100101.19       100116.58       100108.45       100113.84       100111.23       100120.25        100089.9       100112.35       100109.21       100107.41       100120.16       100106.79          100098       100113.99
   0.0002540328       100106.96       100139.17       100095.21       100124.16       100102.18       100116.82       100107.15       100113.97       100111.05       100120.25       100089.86       100112.36       100109.21       100107.46          100120       100107.29        100098.1       100114.17
  0.00026020904       100107.07        100139.2       100094.01       100124.41       100103.18       100117.07       100105.69        100114.1       100110.86       100120.24       100089.87       100112.45        100109.2       100107.46       100119.87       100107.68       100098.24       100114.31
  0.00026639904       100107.21       100139.22       100092.84       100124.59        100104.2        100117.2       100104.06       100114.25       100110.66       100120.22       100089.95       100112.45       100109.21       100107.52       100119.76       100108.15       100098.44       100114.47
  0.00027260112       100107.33       100139.22       100091.68        100124.6       100105.19       100117.28       100102.23       100114.32       100110.47       100120.18       100090.06        100112.5        100109.2       100107.67       100119.72       100108.68       100098.76       100114.61
   0.0002788135       100107.49       100139.24       100090.61       100124.76       100106.23       100117.34       100100.27       100114.43       100110.31       100120.13       100090.25       100112.52       100109.21       100107.78       100119.69       100109.13       100099.08       100114.77
  0.00028503431       100107.66       100139.25       100089.56       100124.86       100107.26        100117.4       100098.18        100114.6       100110.13        100120.1       100090.48       100112.58       100109.23       100107.89       100119.69       100109.69       100099.42       100114.93
   0.0002912616       100107.83       100139.23       100088.58       100124.98       100108.27       100117.38       100096.01       100114.73       100109.99       100120.05       100090.72       100112.62       100109.22       100108.01       100119.72       100110.22       100099.81       100115.08
   0.0002974934          100108       100139.23       100087.67       100124.99       100109.28       100117.39       100093.77       100114.88       100109.77          100120       100090.99       100112.64       100109.22       100108.19       100119.79       100110.81        100100.2       100115.23
  0.00030372771        100108.2       100139.24       100086.85       100125.07       100110.27       100117.34       100091.58       100115.03       100109.58       100119.96       100091.29        100112.7       100109.23       100108.34       100119.88       100111.46       100100.69       100115.39
  0.00030996255       100108.39       100139.26       100086.14       100125.16       100111.26       100117.28       100089.59       100115.22       100109.39        100119.9       100091.59       100112.75       100109.24       100108.48       100120.04       100112.09       100101.14       100115.55
  0.00031619598       100108.57       100139.29       100085.49       100125.24       100112.19       100117.22       100088.05       100115.38       100109.13       100119.84       100091.86       100112.77       100109.22       100108.63       100120.25       100112.76       100101.61        100115.7
  0.00032242613       100108.78       100139.34       100084.93       100125.31       100113.16       100117.17       100087.12       100115.62       100108.96        100119.8       100092.15       100112.83       100109.22       100108.93       100120.38       100113.44       100102.15       100115.86
   0.0003286512       100108.98        100139.4       100084.46       100125.35       100114.06       100117.11       100086.89       100115.78        100108.7       100119.73       100092.41       100112.86       100109.21       100109.12       100120.64       100114.12       100102.59       100116.01
   0.0003348695       100109.19       100139.49       100084.14       100125.41       100114.97       100117.03        100087.3       100115.96       100108.46       100119.68       100092.67        100112.9       100109.19       100109.34       100120.91       100114.83       100103.15       100116.17
  0.00034107944        100109.4       100139.61       100083.88       100125.44       100115.85       100116.97       100088.16       100116.13        100108.2       100119.62       100092.92       100112.95       100109.18       100109.58        100121.2       100115.54       100103.66       100116.32
  0.00034727957        100109.6       100139.75       100083.69       100125.44       100116.72       100116.89       100089.31       100116.27       100107.88       100119.59       100093.13       100112.99       100109.15       100109.78       100121.44       100116.24       100104.15       100116.47
  0.00035346859       100109.82       100139.91       100083.64       100125.47       100117.57       100116.83       100090.58       100116.41       100107.57       100119.55       100093.33       100113.03       100109.13       100109.95       100121.72       100116.94       100104.68       100116.61
  0.00035964533       100110.03       100140.09       100083.67       100125.47       100118.42       100116.74       100091.89       100116.56       100107.26       100119.52       100093.51       100113.07       100109.11       100110.16       100122.03       100117.64        100105.2       100116.77
   0.0003658088       100110.24       100140.29       100083.77       100125.49       100119.25       100116.75       100093.11       100116.72       100106.93       100119.51       100093.68       100113.11        100109.1       100110.33       100122.29       100118.37       100105.71       100116.91
  0.00037195815       100110.44        100140.5       100083.94       100125.48       100120.08       100116.75       100094.15       100116.86       100106.64       100119.49       100093.82       100113.16       100109.09       100110.53       100122.56       100119.03       100106.21       100117.05
  0.00037809274       100110.65       100140.72       100084.19       100125.45       100120.88       100116.78       100094.97       100117.06       100106.36       100119.49       100093.95       100113.21       100109.09       100110.76       100122.87       100119.75       100106.73       100117.19
  0.00038421209       100110.86       100140.94       100084.48        100125.4       100121.68       100116.83       100095.48       100117.18       100106.09       100119.47       100094.07       100113.26       100109.09       100110.98       100123.14       100120.44       100107.23       100117.34
  0.00039031592       100111.07       100141.15       100084.83       100125.28       100122.46       100116.91       100095.68       100117.38       100105.81       100119.48       100094.16       100113.31       100109.11       100111.19        100123.4       100121.09       100107.73       100117.46
  0.00039640415       100111.27       100141.33        100085.2       100125.11        100123.2       100116.97       100095.54       100117.59       100105.57       100119.46       100094.25       100113.36       100109.14       100111.36       100123.66       100121.76       100108.24        100117.6
  0.00040247691       100111.48       100141.52       100085.59       100124.87       100123.93       100117.11       100095.12       100117.85       100105.36       100119.44       100094.33       100113.42       100109.19        100111.5       100123.94       100122.37       100108.74       100117.73
  0.00040853457       100111.68       100141.65       100085.96       100124.54       100124.62        100117.2       100094.39       100118.15       100105.13       100119.42       100094.39       100113.48       100109.25        100111.6       100124.18       100122.97       100109.25       100117.87
  0.00041457773        100111.9       100141.79       100086.29       100124.15       100125.29       100117.34       100093.44       100118.41       100104.97       100119.39       100094.45       100113.54       100109.33       100111.68       100124.41       100123.57       100109.77       100117.99
  0.00042060724       100112.11       100141.86       100086.61       100123.66       100125.93       100117.44       100092.33       100118.71       100104.82       100119.34       100094.51       100113.61       100109.42       100111.76       100124.64       100124.14       100110.27       100118.13
  0.00042662422       100112.32       100141.92       100086.83       100123.14       100126.52       100117.58       100091.13       100119.01       100104.68       100119.28       100094.56        100113.7       100109.52       100111.84       100124.87       100124.66       100110.73       100118.25
  0.00043263002       100112.51       100141.92       100087.04       100122.55       100127.05       100117.69       100089.94       100119.26       100104.58        100119.2       100094.59       100113.76       100109.61        100111.9        100125.1       100125.16       100111.21       100118.36
  0.00043862632       100112.71       100141.89       100087.21          100122       100127.56       100117.76       100088.97       100119.62       100104.46       100119.13       100094.62       100113.85       100109.71       100111.95       100125.29       100125.61       100111.69       100118.47
  0.00044461503       100112.92       100141.82        100087.3       100121.47       100128.02       100117.83       100088.28       100119.85        100104.4       100119.05       100094.66       100113.93       100109.84       100111.98       100125.51       100126.09       100112.16        100118.6
  0.00045059827       100113.11       100141.69       100087.59       100120.97       100128.44       100117.85       100087.96       100120.07       100104.29       100118.96       100094.69       100114.01       100109.96       100111.98       100125.73       100126.43       100112.58       100118.71
  0.00045657841       100113.31        100141.5       100087.78       100120.63       100128.81       100117.88       100088.05       100120.31       100104.23       100118.89       100094.71       100114.11       100110.11       100112.01       100125.94       100126.78          100113       100118.83
  0.00046255792       100113.49       100141.25       100088.04       100120.37       100129.14       100117.84       100088.54       100120.54       100104.15       100118.82       100094.72       100114.19       100110.24       100112.03       100126.11       100127.06        100113.4       100118.93
  0.00046853937       100113.67       100140.95       100088.36        100120.2       100129.44       100117.77       100089.38       100120.65       100104.11       100118.78       100094.73       100114.26       100110.39       100112.04       100126.29       100127.31       100113.79       100119.03
  0.00047452531       100113.86       100140.59       100088.72       100120.15       100129.72       100117.69       100090.48       100120.78       100104.15       100118.77       100094.76       100114.36       100110.57       100112.07       100126.46       100127.53       100114.17       100119.13
  0.00048051816       100114.05       100140.18       100089.11       100120.16       100129.97       100117.54       100091.73       100120.89       100104.17       100118.78       100094.78       100114.46       100110.77        100112.1       100126.65       100127.72       100114.53       100119.23
  0.00048652009       100114.23       100139.69       100089.52       100120.28        100130.2        100117.4       100093.03       100120.92       100104.23       100118.82       100094.79       100114.56       100110.96       100112.12       100126.82       100127.91       100114.89       100119.33
  0.00049253292       100114.42       100139.17       100089.93       100120.48       100130.38       100117.19       100094.23       100120.92       100104.27       100118.89       100094.82       100114.68       100111.16       100112.16       100126.99       100128.09       100115.23       100119.42
  0.00049855803       100114.59       100138.61       100090.34       100120.71       100130.54       100116.98       100095.26       100120.89       100104.29       100118.97       100094.82       100114.76       100111.38       100112.24       100127.11       100128.28       100115.54       100119.49
  0.00050459632       100114.76       100138.05       100090.75       100120.99       100130.67       100116.77       100096.04        100120.8       100104.38       100119.09       100094.83       100114.87        100111.6       100112.32       100127.24       100128.48       100115.88       100119.59
  0.00051064812       100114.92       100137.45       100091.12        100121.2       100130.74       100116.58       100096.49       100120.71       100104.46       100119.22       100094.83       100114.95       100111.81       100112.38       100127.34       100128.74       100116.18       100119.65
  0.00051671323       100115.09       100136.84        100091.5        100121.4       100130.79       100116.37       100096.63       100120.63       100104.62       100119.37       100094.84       100115.07       100112.03       100112.48       100127.45       100129.08       100116.49       100119.72
  0.00052279102       100115.25        100136.2       100091.86        100121.6       100130.81       100116.29       100096.45       100120.47       100104.76       100119.54       100094.85       100115.18       100112.26       100112.57       100127.55       100129.41        100116.8       100119.79
  0.00052888046       100115.42       100135.54       100092.21        100121.8       100130.77       100116.13       100095.96       100120.37       100104.92       100119.74       100094.86       100115.29        100112.5       100112.71       100127.62       100129.78       100117.08       100119.85
  0.00053498031       100115.58       100134.86       100092.54       100121.98       100130.68       100116.09       100095.19       100120.18       100105.08       100119.94       100094.86       100115.39       100112.73       100112.83        100127.7       100130.15       100117.35       100119.91
  0.00054108923       100115.73       100134.15       100092.85       100122.22       100130.53       100116.19       100094.18       100120.06       100105.27       100120.15       100094.86        100115.5       100112.96       100112.97       100127.76       100130.49       100117.62       100119.96
  0.00054720592       100115.88       100133.44       100093.19       100122.52        100130.4       100116.37       100092.96       100119.95       100105.52       100120.38       100094.86        100115.6        100113.2       100113.13       100127.78       100130.86       100117.83       100120.01
  0.00055332921       100116.03       100132.68       100093.52       100122.87       100130.11       100116.66       100091.56       100119.86       100105.85       100120.61       100094.86       100115.69       100113.44       100113.29       100127.81        100131.2       100118.04       100120.05
  0.00055945818       100116.19       100131.94       100093.87       100123.27       100129.86       100117.06       100090.06        100119.8       100106.04       100120.85       100094.88       100115.82       100113.69       100113.48       100127.85       100131.49       100118.23        100120.1
  0.00056559221       100116.34       100131.15       100094.24       100123.69       100129.41       100117.49       100088.54       100119.75       100106.38       100121.09       100094.89       100115.94       100113.94       100113.67       100127.86       100131.82       100118.38       100120.15
  0.00057173099       100116.48       100130.32       100094.64       100124.06       100128.89       100118.03       100087.04       100119.72        100106.7       100121.32       100094.89       100116.04       100114.17       100113.82       100127.85       100132.12        100118.5       100120.17
  0.00057787453       100116.63       100129.47       100095.07       100124.32       100128.27        100118.6        100085.7       100119.71       100107.11       100121.57        100094.9       100116.15       100114.41       100114.05       100127.85       100132.38       100118.64       100120.21