# Probe 0 (0 0.005 0)
# Probe 1 (-0.01 -0.005 0)
# Probe 2 (0.01 -0.005 0)
# Probe 3 (0 -0.005 0.01)
# Probe 4 (0 -0.005 -0.01)
# Probe 5 (-0.01 0.005 0)
# Probe 6 (0.01 0.005 0)
# Probe 7 (0 0.005 0.01)
# Probe 8 (0 0.005 -0.01)
# Probe 9 (-0.005 0.005 0)
# Probe 10 (0.005 0.005 0)
# Probe 11 (0 0.005 0.005)
# Probe 12 (0 0.005 -0.005)
# Probe 13 (-0.01 0.015 0)
# Probe 14 (0.01 0.015 0)
# Probe 15 (0 0.015 0.01)
# Probe 16 (0 0.015 -0.01)
# Probe 17 (0 0.015 0)
#         Probe               0               1               2               3               4               5               6               7               8               9              10              11              12              13              14              15              16              17
#          Time
  5.9970995e-06               (0.42723786 -5.5372428 -0.31921889)               (-2.884917 -0.15911099 -5.8939122)               (0.94416649 3.5262649 1.1613938)               (-1.1222808 4.0228103 0.051649858)               (0.38103006 -0.85674874 -2.0159914)               (-1.2134251 5.2021528 -3.0811853)               (-2.5974678 3.4664865 8.3129709)               (-6.5481173 1.5467147 0.013884453)               (10.43281 3.55622 0.55124811)               (-1.6347015 -0.64709464 -0.2504032)               (-1.6633352 1.6331832 4.3543052)               (-2.3447468 -2.7168327 0.10052992)               (4.2121694 0.95571599 1.6959664)               (2.0647281 -0.40754242 -0.21491277)               (3.6184547 -1.8951553 7.5015383)               (-2.0616456 -1.2131314 -3.4750509)               (8.0093476 -0.27573698 -0.68820117)               (-2.918111 -0.9653528 -0.18594781)
  1.1963118e-05               (0.45205521 -5.4342346 -0.34779224)               (-2.7634108 -0.15925075 -5.9880305)               (0.94141588 3.4771598 1.3085875)               (-1.1187125 4.0151764 0.018459319)               (0.44797788 -0.92137998 -2.1149827)               (-1.285563 5.1040014 -3.0813676)               (-2.6736746 3.671741 8.1574468)               (-6.8353578 1.3855158 0.071535341)               (10.347691 3.7296888 0.58797887)               (-1.6422725 -0.64875275 -0.28037578)               (-1.7851005 1.6774095 4.4266333)               (-2.2424293 -2.7110812 0.088843359)               (4.1904776 1.0108692 1.7044472)               (2.0218809 -0.43005413 -0.19189122)               (3.6497538 -1.9384866 7.4580521)               (-1.9888476 -1.2999832 -3.4216764)               (8.2516968 -0.2326421 -0.76198656)               (-3.0193151 -0.95748422 -0.15667636)
  1.7905389e-05               (0.471557 -5.3356937 -0.38016191)               (-2.6662211 -0.1730271 -6.0793059)               (0.94050067 3.4183608 1.4656968)               (-1.1305095 4.0070425 -0.014108737)               (0.5018753 -0.96164183 -2.2166956)               (-1.3569299 5.0020554 -3.0888952)               (-2.80368 3.8831635 7.9859637)               (-7.0915004 1.1178732 0.13789128)               (10.214206 3.927599 0.60463199)               (-1.6491602 -0.651889 -0.31495626)               (-1.9441712 1.7070264 4.4793906)               (-2.1410359 -2.708382 0.076854641)               (4.1695093 1.0654405 1.7143301)               (1.9799121 -0.45551511 -0.17002417)               (3.675525 -1.9808871 7.4000226)               (-1.9204846 -1.3872399 -3.3663951)               (8.4928611 -0.12748595 -0.89430195)               (-3.122724 -0.94664413 -0.12552121)
   2.382551e-05               (0.48548256 -5.2419523 -0.41610648)               (-2.5953664 -0.18996545 -6.1652106)               (0.93998256 3.3531077 1.6307038)               (-1.1571706 3.9977918 -0.045828903)               (0.5444623 -0.98062206 -2.3191218)               (-1.4274985 4.8961176 -3.1040229)               (-3.0044835 4.0868882 7.7916557)               (-7.3102628 0.74584225 0.2094414)               (10.048437 4.133927 0.59604902)               (-1.6548256 -0.65624421 -0.35404484)               (-2.1383499 1.7234003 4.5121209)               (-2.0408773 -2.7083113 0.064388686)               (4.149262 1.1191422 1.7255942)               (1.9393312 -0.48352658 -0.14925501)               (3.6971482 -2.0228547 7.3285519)               (-1.8565515 -1.474199 -3.3096999)               (8.7188414 0.036965319 -1.0667156)               (-3.2286684 -0.9309397 -0.091630772)
  2.9725862e-05               (0.49362947 -5.153211 -0.45528436)               (-2.5491261 -0.20087161 -6.2443609)               (0.93712477 3.2836568 1.8006531)               (-1.198462 3.9868825 -0.076909831)               (0.57581174 -0.9797444 -2.4217417)               (-1.49761 4.7859619 -3.1271946)               (-3.2846097 4.2709471 7.5709567)               (-7.4815107 0.28761831 0.27879906)               (9.8660297 4.3367655 0.56315259)               (-1.659126 -0.6616821 -0.39765875)               (-2.3631166 1.7295405 4.5247448)               (-1.9423547 -2.7105491 0.051377653)               (4.1296954 1.1715928 1.73809)               (1.8995316 -0.51342144 -0.13000428)               (3.7176594 -2.0618114 7.2449563)               (-1.7966572 -1.5604308 -3.2522064)               (8.9139622 0.25662029 -1.2526397)               (-3.3372436 -0.9081633 -0.054106348)
  3.5608426e-05               (0.49588876 -5.0696049 -0.49752356)               (-2.5227945 -0.19707216 -6.3164283)               (0.92814362 3.2119955 1.9721675)               (-1.254081 3.9738347 -0.10774718)               (0.59554946 -0.95965448 -2.525134)               (-1.5672436 4.67133 -3.1582911)               (-3.6420238 4.4268962 7.3244435)               (-7.6002321 -0.23157425 0.33958796)               (9.6796519 4.5283451 0.51210123)               (-1.6616235 -0.66810597 -0.44575777)               (-2.612089 1.7296221 4.5178802)               (-1.8460512 -2.7154992 0.038091073)               (4.1106216 1.2225848 1.751744)               (1.8615377 -0.54500051 -0.11182728)               (3.7411536 -2.0940188 7.1507113)               (-1.7409054 -1.6455304 -3.1928481)               (9.0675926 0.52439663 -1.4166668)               (-3.4483004 -0.87590012 -0.012390953)
  4.1474934e-05               (0.49209133 -4.9912129 -0.54222441)               (-2.5091556 -0.17162488 -6.3819179)               (0.90921846 3.1398797 2.1414254)               (-1.3237142 3.9582901 -0.13860686)               (0.60369672 -0.92129395 -2.6299513)               (-1.6367145 4.5516292 -3.1981245)               (-4.0644095 4.5505431 7.0569041)               (-7.6688378 -0.77492572 0.38798292)               (9.4973403 4.7039911 0.45171085)               (-1.6621412 -0.67547217 -0.49832589)               (-2.8779588 1.728554 4.4924749)               (-1.7522342 -2.722848 0.024459071)               (4.0918975 1.27186 1.7664235)               (1.8255123 -0.57818718 -0.094858821)               (3.7715778 -2.1142599 7.0490402)               (-1.6887495 -1.7291449 -3.1324845)               (9.1727428 0.83239394 -1.5238866)               (-3.5614739 -0.83163737 0.033647259)
  4.7327047e-05               (0.48225044 -4.9179604 -0.58928284)               (-2.5002256 -0.12028064 -6.4417276)               (0.8768578 3.0688937 2.3045061)               (-1.406757 3.9399474 -0.16980711)               (0.60013536 -0.86512475 -2.7368553)               (-1.7060763 4.426753 -3.2468674)               (-4.5314717 4.6417198 6.7765725)               (-7.6926353 -1.3048508 0.421182)               (9.3229342 4.8609257 0.39103735)               (-1.66038 -0.68373207 -0.55532223)               (-3.1528949 1.7316661 4.4497716)               (-1.661005 -2.7323532 0.010434862)               (4.0732059 1.3191282 1.7817536)               (1.7916743 -0.61255405 -0.080270447)               (3.8124645 -2.1174993 6.9432167)               (-1.6398801 -1.8108807 -3.0714042)               (9.228568 1.1744255 -1.5481784)               (-3.676138 -0.77322997 0.08354019)
  5.3166358e-05               (0.46643762 -4.8497092 -0.63803787)               (-2.4885949 -0.041629452 -6.496693)               (0.82859793 3.0005244 2.45727)               (-1.5024472 3.9186812 -0.20183026)               (0.58510444 -0.79187322 -2.8465048)               (-1.7748675 4.2961763 -3.3048448)               (-5.0187427 4.7033099 6.493888)               (-7.6870124 -1.7878113 0.43922277)               (9.1562646 4.99754 0.33739478)               (-1.6562327 -0.69291589 -0.61674135)               (-3.4293391 1.7440361 4.3914517)               (-1.5719868 -2.7431222 -0.0040957772)               (4.0544984 1.3642805 1.7984455)               (1.760108 -0.64798159 -0.065999048)               (3.8671766 -2.0989729 6.8373849)               (-1.5946482 -1.8899519 -3.0094491)               (9.24444 1.5443373 -1.4765862)               (-3.7913865 -0.69933692 0.13619396)
  5.8994391e-05               (0.44494174 -4.7862462 -0.68833216)               (-2.4696691 0.062250164 -6.5475373)               (0.76328201 2.9360614 2.5956049)               (-1.6097723 3.8948103 -0.23518589)               (0.55905022 -0.70241698 -2.9594595)               (-1.8442031 4.1594298 -3.3727725)               (-5.5012453 4.7400363 6.2201753)               (-7.6633744 -2.1953776 0.44780135)               (8.9945398 5.1126397 0.2953056)               (-1.6495201 -0.70304574 -0.68254266)               (-3.7004112 1.7702339 4.3194946)               (-1.485384 -2.7557131 -0.018921554)               (4.0355505 1.4070463 1.8164086)               (1.7304761 -0.68461649 -0.051718445)               (3.9370064 -2.0559704 6.7356937)               (-1.5521565 -1.9664921 -2.9469928)               (9.2261319 1.9359056 -1.3126801)               (-3.906007 -0.6099631 0.18982365)
  6.4812639e-05               (0.41764781 -4.7272839 -0.73987475)               (-2.4409358 0.18631047 -6.5943508)               (0.68136989 2.8767583 2.7156456)               (-1.7270251 3.8685617 -0.27024506)               (0.52215008 -0.59793923 -3.0755947)               (-1.913262 4.0161033 -3.4509902)               (-5.9562989 4.7572094 5.9665693)               (-7.6377879 -2.5028214 0.45375739)               (8.8341259 5.2056017 0.26705036)               (-1.6401238 -0.71422972 -0.75273334)               (-3.960204 1.8142667 4.2360041)               (-1.401398 -2.7691098 -0.0341833)               (4.0161794 1.4473809 1.8356225)               (1.7030249 -0.72232724 -0.03771478)               (4.021563 -1.9888671 6.6416725)               (-1.5123612 -2.0402737 -2.8838609)               (9.1894708 2.3419656 -1.0738773)               (-4.0186471 -0.50720775 0.24216361)
  7.0622566e-05               (0.38490478 -4.6724666 -0.79236206)               (-2.401729 0.32304336 -6.6369836)               (0.58502795 2.8235713 2.8137301)               (-1.8522375 3.8409671 -0.30770838)               (0.47523483 -0.47985743 -3.1949683)               (-1.9828066 3.8655102 -3.5399926)               (-6.3651137 4.7599026 5.7433925)               (-7.6236831 -2.6982387 0.46453113)               (8.6713283 5.2761617 0.25255517)               (-1.6280423 -0.72660465 -0.82723122)               (-4.204322 1.8788199 4.1431239)               (-1.3199516 -2.7835509 -0.049822467)               (3.9963338 1.4851503 1.8562883)               (1.6777587 -0.7605988 -0.025464283)               (4.1188437 -1.9010071 6.5589609)               (-1.4751528 -2.1110053 -2.8201725)               (9.1437527 2.7522704 -0.78937872)               (-4.1276645 -0.39544343 0.29052929)
  7.6425613e-05               (0.3469227 -4.6213914 -0.84538672)               (-2.3540827 0.46341105 -6.676045)               (0.47809308 2.777305 2.886963)               (-1.9827353 3.8128601 -0.34815219)               (0.41929663 -0.34965497 -3.3173545)               (-2.0531625 3.7071828 -3.6403399)               (-6.7133337 4.7523891 5.5597121)               (-7.6278264 -2.7835018 0.48539257)               (8.5037716 5.3244757 0.25095657)               (-1.6133384 -0.74040877 -0.90601062)               (-4.4298022 1.9657065 4.0430661)               (-1.2413539 -2.7989334 -0.065985327)               (3.9757913 1.5201981 1.8783547)               (1.6540608 -0.79986961 -0.013717158)               (4.2243405 -1.7991676 6.4897589)               (-1.4397791 -2.1782443 -2.7562073)               (9.1029663 3.1558668 -0.49070213)               (-4.2317228 -0.28160959 0.33227808)
  8.2223223e-05               (0.30399665 -4.5736171 -0.89866528)               (-2.3011353 0.59829159 -6.7106876)               (0.36537403 2.7386178 2.9330726)               (-2.1155333 3.786554 -0.39248391)               (0.35515775 -0.20912885 -3.442344)               (-2.1239102 3.5405022 -3.7524684)               (-6.9908606 4.737976 5.4232448)               (-7.6562068 -2.7698162 0.52133249)               (8.3305854 5.3511213 0.26027705)               (-1.5961858 -0.75591322 -0.98899936)               (-4.6350848 2.075496 3.937793)               (-1.1653222 -2.8153071 -0.082456619)               (3.9542819 1.5525297 1.9018495)               (1.6315856 -0.83987737 -0.002231506)               (4.3323176 -1.6929554 6.4356793)               (-1.4061861 -2.2419036 -2.6918781)               (9.0769794 3.5415343 -0.20973046)               (-4.3293672 -0.17463045 0.36476039)
   8.801685e-05               (0.25643618 -4.5286744 -0.95188641)               (-2.2464104 0.7190799 -6.7408596)               (0.25227418 2.7075228 2.9507556)               (-2.2470349 3.7636034 -0.44141206)               (0.28362559 -0.060003211 -3.5694246)               (-2.1954235 3.3650992 -3.8766935)               (-7.1914481 4.7190147 5.3401921)               (-7.7091142 -2.6784789 0.57323524)               (8.1522099 5.3577219 0.27822816)               (-1.5768373 -0.77348906 -1.0761454)               (-4.8202656 2.207431 3.8291292)               (-1.0917029 -2.8322826 -0.099234988)               (3.9317359 1.5820235 1.9268082)               (1.610234 -0.88056726 0.0090687333)               (4.4357304 -1.5927843 6.3976821)               (-1.3739656 -2.301777 -2.6271523)               (9.0726558 3.8985577 0.026429518)               (-4.4192768 -0.084661364 0.38581948)
  9.3807939e-05               (0.20457765 -4.486088 -1.0047892)               (-2.1929639 0.81847812 -6.7667261)               (0.1436465 2.683957 2.9397796)               (-2.3732316 3.746766 -0.49514317)               (0.20635202 0.096228268 -3.6980955)               (-2.2680778 3.1802885 -4.0130819)               (-7.3122361 4.696984 5.3150968)               (-7.7793397 -2.5399448 0.63859315)               (7.9702735 5.3461602 0.30282598)               (-1.5556878 -0.79364954 -1.167405)               (-4.9864431 2.3597074 3.7187006)               (-1.02074 -2.8496211 -0.11644872)               (3.9078945 1.6086494 1.9532875)               (1.5898832 -0.92167615 0.018997327)               (4.5270194 -1.5096051 6.3748969)               (-1.342622 -2.3577912 -2.5623136)               (9.0945901 4.2177248 0.19655271)               (-4.5003854 -0.021793402 0.39402885)
  9.9597954e-05               (0.14876064 -4.445338 -1.0571272)               (-2.1426771 0.89145593 -6.788552)               (0.043584057 2.666808 2.9008307)               (-2.4905501 3.739039 -0.55394446)               (0.12433927 0.25751345 -3.8277121)               (-2.3419116 2.9855401 -4.1617502)               (-7.3535315 4.6726399 5.3506246)               (-7.8634434 -2.3864534 0.711645)               (7.7872471 5.3192407 0.33176772)               (-1.5332846 -0.81696072 -1.2627217)               (-5.1358372 2.5292456 3.6079457)               (-0.95197987 -2.8669538 -0.13403154)               (3.8824932 1.6323461 1.9812047)               (1.5701613 -0.96375828 0.028587189)               (4.5994305 -1.4518054 6.366086)               (-1.3117812 -2.4099224 -2.4967299)               (9.1440888 4.4925619 0.28480076)               (-4.5720661 0.0054593384 0.3886635)
  0.00010538837               (0.089335097 -4.4059297 -1.1086923)               (-2.0959089 0.93541668 -6.8064778)               (-0.045901315 2.6547957 2.8348523)               (-2.5957554 3.74424 -0.61789102)               (0.038547306 0.42063225 -3.9578516)               (-2.4168691 2.7804345 -4.3222721)               (-7.3185776 4.6459875 5.4473494)               (-7.9469188 -2.2493513 0.78490003)               (7.6053841 5.2792682 0.36245683)               (-1.510368 -0.84414099 -1.3620022)               (-5.2713041 2.7119407 3.4979727)               (-0.88568473 -2.8843535 -0.15193256)               (3.8553801 1.6529732 2.0106131)               (1.550778 -1.0068063 0.03780597)               (4.6472655 -1.4256199 6.3693308)               (-1.2812186 -2.4579281 -2.4306607)               (9.2200795 4.7196174 0.28377869)               (-4.634015 -0.0083629902 0.36998514)
  0.00011118069               (0.026686543 -4.3673427 -1.1593039)               (-2.0518235 0.95018602 -6.8204368)               (-0.1234605 2.646198 2.7443617)               (-2.6847805 3.7650565 -0.68686577)               (-0.051970497 0.58392045 -4.0882256)               (-2.4938355 2.5641037 -4.4940918)               (-7.2134286 4.6163839 5.6034426)               (-8.0159491 -2.1568626 0.85225599)               (7.4263531 5.2293319 0.39340001)               (-1.4877875 -0.87606469 -1.4651782)               (-5.3960771 2.9027946 3.3897391)               (-0.82192561 -2.9017972 -0.17031454)               (3.8265099 1.6706355 2.0414191)               (1.53105 -1.0505912 0.046489196)               (4.6666656 -1.4335341 6.3823336)               (-1.2502951 -2.5018408 -2.3637622)               (9.3200469 4.8984127 0.19235197)               (-4.6861103 -0.064479369 0.33926732)
  0.00011697638               (-0.038812398 -4.3290747 -1.2087976)               (-2.0087045 0.93759823 -6.8302661)               (-0.18917996 2.6388859 2.6320255)               (-2.7554111 3.8034654 -0.7592027)               (-0.1415964 0.74766655 -4.218252)               (-2.572155 2.3366922 -4.6763228)               (-7.0467403 4.5825634 5.8144539)               (-8.0601568 -2.1281119 0.90642595)               (7.2518283 5.1717599 0.42253481)               (-1.466624 -0.913676 -1.572138)               (-5.5131519 3.096169 3.2840393)               (-0.76045653 -2.9191847 -0.18902438)               (3.7956174 1.685225 2.0735212)               (1.5106861 -1.0948973 0.055279254)               (4.656141 -1.4735141 6.4025292)               (-1.2185024 -2.5414088 -2.2957324)               (9.4417367 5.0316258 0.019019482)               (-4.7286754 -0.15938785 0.29851963)
  0.00012277695               (-0.10678768 -4.2906155 -1.2570494)               (-1.9644057 0.9008729 -6.8359975)               (-0.24568704 2.6299341 2.5000892)               (-2.806903 3.8603818 -0.83259606)               (-0.23223235 0.90911804 -4.3481818)               (-2.6518414 2.0981353 -4.867542)               (-6.8296739 4.5428651 6.0730847)               (-8.0705408 -2.1704883 0.9425677)               (7.0825645 5.1097343 0.44831693)               (-1.4480308 -0.958028 -1.682679)               (-5.6251292 3.2860597 3.1815477)               (-0.70149579 -2.9362489 -0.2080187)               (3.7625984 1.6967039 2.1069031)               (1.4897423 -1.1404707 0.064080465)               (4.6169094 -1.5390338 6.4260969)               (-1.1853916 -2.5771442 -2.2261801)               (9.5814762 5.1246538 -0.21802119)               (-4.7623903 -0.28529108 0.25040105)
  0.00012858389               (-0.17685823 -4.2514987 -1.3039432)               (-1.9169022 0.84369871 -6.8380567)               (-0.29347764 2.6179443 2.3524255)               (-2.8384401 3.936029 -0.90416374)               (-0.32223095 1.0669042 -4.4782148)               (-2.7323235 1.8489777 -5.0665329)               (-6.5757963 4.4954347 6.3689238)               (-8.035384 -2.2806988 0.95706537)               (6.9195404 5.045926 0.46625234)               (-1.4333365 -1.0102994 -1.7965727)               (-5.7337562 3.4663691 3.0833258)               (-0.6449572 -2.9526577 -0.22744754)               (3.7272732 1.7050632 2.1414401)               (1.4681319 -1.1869657 0.072719032)               (4.553559 -1.6205392 6.4508812)               (-1.1505592 -2.6091524 -2.154346)               (9.7360446 5.1856152 -0.49369762)               (-4.7880301 -0.43139837 0.19772324)
  0.00013439867               (-0.24865085 -4.2112724 -1.3493789)               (-1.8648555 0.77000281 -6.8373897)               (-0.33562406 2.6010818 2.1929904)               (-2.8536567 4.0283871 -0.97002047)               (-0.40988342 1.2195289 -4.6085434)               (-2.8131016 1.5904329 -5.2710579)               (-6.3008338 4.4387641 6.6884147)               (-7.9574396 -2.4428967 0.95011936)               (6.7629015 4.9831833 0.47622112)               (-1.4239063 -1.0716346 -1.9134695)               (-5.8393421 3.6316277 2.990412)               (-0.59058253 -2.9684864 -0.24722663)               (3.6895458 1.710333 2.1770271)               (1.4455025 -1.2340888 0.081608097)               (4.472594 -1.705703 6.4739273)               (-1.1145349 -2.6372493 -2.0802992)               (9.902423 5.2252908 -0.77619484)               (-4.8064729 -0.58570865 0.1430163)
  0.00014022276               (-0.32182747 -4.1695263 -1.3932709)               (-1.8078139 0.68328462 -6.8353126)               (-0.3739993 2.577278 2.0253462)               (-2.8543314 4.1353403 -1.0251634)               (-0.49412936 1.3658823 -4.7397131)               (-2.8931294 1.3240729 -5.4794659)               (-6.022414 4.3723666 7.0151579)               (-7.8419125 -2.6327293 0.92688961)               (6.6126028 4.9241396 0.47692792)               (-1.4210574 -1.1431027 -2.032934)               (-5.9406787 3.7771887 2.9040682)               (-0.53846897 -2.98375 -0.2672892)               (3.6492814 1.7125165 2.2135292)               (1.42242 -1.2818854 0.090764809)               (4.3804995 -1.7807344 6.4922289)               (-1.0756965 -2.6616546 -2.0030859)               (10.076771 5.2568889 -1.0332464)               (-4.8185302 -0.73683282 0.088548736)
  0.00014605757               (-0.39604873 -4.1258788 -1.4355131)               (-1.7462027 0.58716495 -6.8333353)               (-0.41015454 2.5454791 1.8520801)               (-2.8462944 4.2528958 -1.0662976)               (-0.57320618 1.5046757 -4.8720572)               (-2.9707984 1.052932 -5.6896088)               (-5.7593909 4.2976982 7.3305955)               (-7.6982047 -2.8201366 0.89343896)               (6.4675244 4.8708169 0.46773424)               (-1.425895 -1.225598 -2.1544354)               (-6.035075 3.8996841 2.8258739)               (-0.48817365 -2.9982041 -0.28765337)               (3.6064626 1.7116749 2.2508681)               (1.3990935 -1.3309216 0.10063432)               (4.2857296 -1.8337089 6.5048995)               (-1.0345867 -2.6829239 -1.9219499)               (10.253655 5.2933884 -1.2398803)               (-4.8250186 -0.87528796 0.036067745)
   0.0001519045               (-0.47102548 -4.0800139 -1.4760055)               (-1.6813867 0.48499179 -6.8327022)               (-0.4458242 2.5052457 1.6773451)               (-2.8351058 4.3772864 -1.0902058)               (-0.64523182 1.6349604 -5.0061906)               (-3.0441826 0.77959558 -5.8988108)               (-5.5304967 4.2190345 7.6155197)               (-7.536285 -2.9773159 0.85830532)               (6.3274592 4.8255402 0.4480463)               (-1.4393886 -1.3197461 -2.2773422)               (-6.1182244 3.9973453 2.7574427)               (-0.43983681 -3.0118379 -0.30828744)               (3.5609345 1.7077679 2.2888174)               (1.3752762 -1.3808117 0.11157808)               (4.1948251 -1.8541021 6.5103422)               (-0.99072735 -2.700935 -1.8357088)               (10.426641 5.3470816 -1.3802006)               (-4.8265355 -0.99428828 -0.013275517)
  0.00015776489               (-0.54650712 -4.0316392 -1.5146582)               (-1.6153434 0.37980438 -6.8339813)               (-0.48142551 2.4558366 1.5007272)               (-2.8261595 4.5047545 -1.0947679)               (-0.70818107 1.7556177 -5.1427126)               (-3.1107373 0.50931531 -6.1054043)               (-5.3523526 4.1440268 7.851932)               (-7.3709335 -3.082919 0.8261059)               (6.191093 4.7895101 0.41812248)               (-1.4619894 -1.4257699 -2.4009788)               (-6.1849466 4.0698957 2.7003565)               (-0.3935519 -3.0246119 -0.32915991)               (3.5127078 1.700901 2.3271564)               (1.3510206 -1.4317264 0.12394662)               (4.1125031 -1.8343102 6.5074161)               (-0.94543218 -2.7165176 -1.7442728)               (10.587182 5.4255376 -1.4533032)               (-4.8236453 -1.0900286 -0.058772502)
  0.00016364001               (-0.62229807 -3.9805056 -1.5513315)               (-1.5505503 0.275475 -6.8374381)               (-0.51735272 2.3969253 1.3236126)               (-2.8239647 4.6331524 -1.0797381)               (-0.759739 1.8660176 -5.2822754)               (-3.1674962 0.24642905 -6.3058684)               (-5.2368984 4.0838676 8.0252501)               (-7.2141106 -3.1226137 0.80365467)               (6.0565358 4.7633605 0.37573211)               (-1.493756 -1.5433421 -2.5245949)               (-6.2297317 4.1184021 2.6559059)               (-0.3491757 -3.0363712 -0.35024602)               (3.4616836 1.6910021 2.3659198)               (1.3268195 -1.4841111 0.13801558)               (4.0412606 -1.7709568 6.4969924)               (-0.89728935 -2.7304041 -1.6472145)               (10.726647 5.5314093 -1.468378)               (-4.8166983 -1.1614842 -0.10025195)
  0.00016953107               (-0.69825862 -3.9264033 -1.5858724)               (-1.4897967 0.17449697 -6.8428483)               (-0.55435625 2.3296016 1.1494037)               (-2.8327165 4.75999 -1.0468792)               (-0.79726004 1.9653192 -5.4252837)               (-3.2110053 -0.0036138703 -6.4991119)               (-5.1890243 4.0526784 8.1264094)               (-7.0751523 -3.0945964 0.79384727)               (5.9254857 4.7476513 0.32379374)               (-1.5340999 -1.6716189 -2.6474176)               (-6.2474858 4.1449339 2.62507)               (-0.30662467 -3.0471019 -0.37147238)               (3.4079267 1.6780762 2.4045404)               (1.3030686 -1.5371346 0.15381352)               (3.9804369 -1.6633346 6.4791934)               (-0.84743548 -2.7424041 -1.5430767)               (10.836894 5.6599344 -1.4427648)               (-4.8059435 -1.2098969 -0.13767546)
  0.00017543916               (-0.77433723 -3.8691434 -1.618118)               (-1.4358341 0.081101374 -6.8495151)               (-0.59166722 2.2538689 0.97758341)               (-2.8551618 4.8831992 -1.0007033)               (-0.81783212 2.0529306 -5.5718745)               (-3.2376355 -0.23525144 -6.6837945)               (-5.2048584 4.0662009 8.1536836)               (-6.9585938 -3.0050027 0.79905706)               (5.7963811 4.7419121 0.26419385)               (-1.5818776 -1.809139 -2.7687025)               (-6.2345651 4.1520074 2.6085227)               (-0.26672781 -3.0568518 -0.39286397)               (3.3515507 1.6621514 2.4427555)               (1.2797604 -1.5914727 0.1728458)               (3.9267827 -1.5145677 6.4548006)               (-0.79620745 -2.7514645 -1.4315408)               (10.912896 5.8002711 -1.3950227)               (-4.7915883 -1.2382198 -0.17129159)
  0.00018136527               (-0.85054785 -3.8085596 -1.6478854)               (-1.3914983 -0.00097165076 -6.8563739)               (-0.62876917 2.1709857 0.80932055)               (-2.8928196 5.0012848 -0.94693373)               (-0.81835381 2.1279667 -5.7218847)               (-3.2440303 -0.44488517 -6.8573073)               (-5.2719747 4.139599 8.1132009)               (-6.8658137 -2.8704125 0.81665009)               (5.6686858 4.7462513 0.19867696)               (-1.6352247 -1.9539394 -2.8877483)               (-6.1893075 4.1418845 2.6063223)               (-0.22850726 -3.0655494 -0.41434484)               (3.2925048 1.6433309 2.4805643)               (1.2572824 -1.6465609 0.19486595)               (3.874664 -1.3299444 6.4263622)               (-0.74453092 -2.7578086 -1.311834)               (10.951329 5.9385773 -1.3374312)               (-4.773844 -1.2502683 -0.20138311)
  0.00018731026               (-0.9269912 -3.7444841 -1.6749635)               (-1.3595568 -0.068280499 -6.8622408)               (-0.66483718 2.0815175 0.64566246)               (-2.9442908 5.1116641 -0.89196272)               (-0.7953052 2.1895476 -5.8749701)               (-3.2273447 -0.62820184 -7.0194995)               (-5.3715145 4.2854452 8.0176448)               (-6.7955179 -2.7097 0.84314094)               (5.5421234 4.7598455 0.12883444)               (-1.6917659 -2.1036297 -3.0038544)               (-6.1122202 4.1162794 2.6181275)               (-0.19197792 -3.07315 -0.43584665)               (3.2309098 1.6217357 2.5175925)               (1.2351591 -1.7019926 0.21989036)               (3.8190839 -1.1151544 6.3937156)               (-0.69279472 -2.7614028 -1.1835768)               (10.954174 6.0609441 -1.2760048)               (-4.7528968 -1.2500678 -0.22820698)
  0.00019327486               (-1.003819 -3.6767661 -1.6991501)               (-1.3423593 -0.1177887 -6.86585)               (-0.69911793 1.9855014 0.48676527)               (-3.0100813 5.211368 -0.84259084)               (-0.74503128 2.2362272 -6.0303544)               (-3.1863188 -0.78308617 -7.1688516)               (-5.4816554 4.5123037 7.8835015)               (-6.7447735 -2.5425253 0.87421268)               (5.4167733 4.7829835 0.055533913)               (-1.7486592 -2.2554822 -3.1163677)               (-6.0058812 4.0760077 2.6432065)               (-0.15730806 -3.079795 -0.45739224)               (3.1669169 1.5974255 2.5537027)               (1.2138914 -1.7579271 0.24786708)               (3.7535531 -0.87785755 6.3594567)               (-0.6407165 -2.7628007 -1.0476152)               (10.925998 6.1554947 -1.2133879)               (-4.7289188 -1.2412444 -0.25197227)