# Probe 0 (0 0.005 0)
# Probe 1 (-0.01 -0.005 0)
# Probe 2 (0.01 -0.005 0)
# Probe 3 (0 -0.005 0.01)
# Probe 4 (0 -0.005 -0.01)
# Probe 5 (-0.01 0.005 0)
# Probe 6 (0.01 0.005 0)
# Probe 7 (0 0.005 0.01)
# Probe 8 (0 0.005 -0.01)
# Probe 9 (-0.005 0.005 0)
# Probe 10 (0.005 0.005 0)
# Probe 11 (0 0.005 0.005)
# Probe 12 (0 0.005 -0.005)
# Probe 13 (-0.01 0.015 0)
# Probe 14 (0.01 0.015 0)
# Probe 15 (0 0.015 0.01)
# Probe 16 (0 0.015 -0.01)
# Probe 17 (0 0.015 0)
#         Probe               0               1               2               3               4               5               6               7               8               9              10              11              12              13              14              15              16              17
#          Time
    0.015242692       100127.45       100104.67       100123.54       100125.66       100063.25       100101.29       100132.69       100120.04       100144.04       100118.89       100128.41       100113.85       100136.15       100127.86       100132.78        100122.3       100140.15        100128.3
     0.01524916       100127.49       100104.78       100123.65       100126.32       100062.33       100101.36        100132.9       100119.95       100143.06          100119       100128.39       100113.68       100136.19       100127.46       100133.24       100122.59       100140.28       100128.32
    0.015255594       100127.48       100104.91       100123.75       100126.94       100061.71       100101.51       100133.06       100119.82       100142.14       100119.05       100128.32       100113.46       100136.19       100127.03       100133.63       100122.84        100140.3        100128.3
    0.015261972       100127.45       100105.05       100123.84       100127.53       100061.46       100101.76       100133.17       100119.68       100141.28       100119.07       100128.24       100113.24       100136.15       100126.56       100134.02       100123.08       100140.32       100128.26
     0.01526831       100127.43       100105.21       100123.96       100128.14       100061.56       100102.02       100133.27       100119.57       100140.55        100119.1       100128.15       100113.05       100136.13       100126.13       100134.42       100123.33       100140.35       100128.22
    0.015274623       100127.42       100105.45       100124.13       100128.75       100061.93       100102.49       100133.39       100119.47       100139.96       100119.13       100128.08       100112.92       100136.11       100125.72       100134.83       100123.65       100140.37        100128.2
    0.015280921       100127.41       100105.71       100124.31       100129.34        100062.5       100102.95       100133.47       100119.36       100139.56       100119.15          100128       100112.79       100136.09        100125.3        100135.2       100123.95       100140.45       100128.18
    0.015287211        100127.4          100106       100124.51        100129.9       100063.19        100103.6       100133.57       100119.34       100139.31       100119.18       100127.93        100112.7       100136.09       100124.92       100135.59       100124.27       100140.49       100128.16
    0.015293497        100127.4       100106.31       100124.74       100130.45          100064        100104.3       100133.65       100119.31       100139.26       100119.22       100127.86       100112.63       100136.07       100124.55       100135.94       100124.59       100140.53       100128.14
    0.015299781       100127.38       100106.63       100124.99       100130.93        100064.9       100105.17       100133.73       100119.24       100139.39       100119.22       100127.78       100112.57       100136.08       100124.18       100136.27       100124.89       100140.48       100128.11
    0.015306061       100127.36       100106.98       100125.25       100131.39       100065.89       100105.79       100133.81       100119.19       100139.57       100119.25       100127.71       100112.54       100136.07       100123.84       100136.55       100125.22       100140.55       100128.08
    0.015312339       100127.35       100107.33       100125.53        100131.8          100067       100106.54       100133.89       100119.17       100139.83       100119.26       100127.63       100112.53       100136.01       100123.52       100136.81       100125.53        100140.6       100128.05
    0.015318616       100127.33       100107.71       100125.84       100132.17       100068.22       100107.33       100133.97       100119.19       100140.05       100119.27       100127.57       100112.56       100135.99       100123.24       100137.03       100125.86       100140.48       100128.03
    0.015324889       100127.34       100108.12       100126.19       100132.53       100069.53       100107.99       100134.06       100119.23       100140.28       100119.32       100127.51       100112.59       100135.99       100122.99       100137.24       100126.18       100140.73       100128.01
     0.01533114       100127.28       100108.49       100126.52       100132.79       100070.84       100108.52        100134.1       100119.18       100140.39       100119.27       100127.42       100112.63       100135.94       100122.69       100137.37       100126.45       100140.74       100127.95
    0.015337369       100127.26       100108.91        100126.9       100133.05       100072.17       100109.09       100134.18       100119.23       100140.51       100119.29       100127.35       100112.69        100135.9       100122.48       100137.51       100126.74       100140.78       100127.91
    0.015343577       100127.26       100109.32       100127.28       100133.27       100073.49        100109.8       100134.25       100119.25       100140.67       100119.31        100127.3       100112.81       100135.89       100122.29       100137.62       100127.06       100140.82       100127.89
    0.015349769       100127.21       100109.71       100127.66       100133.44       100074.72       100110.26       100134.28       100119.25       100140.72       100119.28        100127.2       100112.92       100135.86       100122.09       100137.72       100127.29       100140.81       100127.83
    0.015355948       100127.21       100110.13        100128.1        100133.6       100075.92       100110.67       100134.36       100119.29       100140.79        100119.3       100127.16       100113.01       100135.87       100121.96       100137.83       100127.59        100140.9       100127.82
    0.015362118       100127.17       100110.53       100128.53       100133.71       100077.01       100111.23        100134.4       100119.33       100140.81       100119.27       100127.09       100113.17       100135.86       100121.82       100137.89       100127.82       100140.96       100127.78
    0.015368282       100127.15       100110.93          100129       100133.84       100078.01       100111.75       100134.45       100119.39       100140.74       100119.25       100127.03       100113.34       100135.86       100121.69       100137.98       100128.13       100141.04       100127.76
    0.015374445       100127.12       100111.31       100129.45       100133.92       100078.85       100111.98       100134.48       100119.39       100140.63       100119.23       100126.95       100113.56       100135.87       100121.58       100138.04        100128.4       100141.06       100127.72
    0.015380612       100127.07       100111.68       100129.93          100134       100079.54        100112.4        100134.5        100119.4       100140.42       100119.19       100126.88       100113.65       100135.86       100121.47        100138.1       100128.59       100141.11       100127.68
    0.015386789       100127.05       100112.06       100130.41       100134.08       100080.06       100112.66       100134.52       100119.44       100140.16       100119.16       100126.81       100113.88       100135.87       100121.38       100138.14       100128.78       100141.18       100127.65
    0.015392981          100127       100112.43        100130.9       100134.15       100080.38        100112.9       100134.51       100119.47       100139.85       100119.12       100126.72       100114.09       100135.85       100121.27       100138.16       100129.02       100141.27       100127.61
    0.015399197       100126.98       100112.84       100131.43       100134.25       100080.51       100113.12       100134.53        100119.5       100139.46        100119.1       100126.67        100114.2       100135.91       100121.19       100138.16       100129.18       100141.41        100127.6
    0.015405444       100126.94       100113.23       100131.94       100134.33        100080.4       100113.33       100134.51       100119.53       100139.01       100119.06       100126.59       100114.46       100135.92        100121.1       100138.16       100129.32       100141.47       100127.56
    0.015411732        100126.9       100113.62       100132.49       100134.42       100080.03       100113.51       100134.51       100119.58       100138.52       100119.01       100126.52       100114.68       100135.94       100120.99       100138.21       100129.52       100141.52       100127.53
    0.015418071       100126.85       100114.02       100133.03       100134.51       100079.41       100113.55       100134.49       100119.61       100137.91       100118.96       100126.43       100114.81       100135.95       100120.88       100138.17       100129.61       100141.62       100127.49
    0.015424474       100126.82       100114.43       100133.59       100134.63       100078.56        100113.6       100134.47       100119.68       100137.25       100118.91       100126.38       100115.04       100135.99       100120.76       100138.19        100129.7        100141.8       100127.47
    0.015430952       100126.77       100114.83       100134.17       100134.75       100077.58       100113.55       100134.43       100119.71       100136.63       100118.84        100126.3       100115.22          100136       100120.63       100138.21       100129.74       100141.89       100127.43
    0.015437522       100126.73       100115.25       100134.72       100134.89       100076.58       100113.51       100134.39       100119.77       100135.95       100118.78       100126.23        100115.4       100136.04       100120.49       100138.21       100129.81       100142.03        100127.4
    0.015444197       100126.67       100115.68       100135.31       100135.05       100075.69       100113.37       100134.35        100119.8       100135.29       100118.67       100126.16       100115.58       100136.05       100120.34       100138.25       100129.97       100142.18       100127.37
    0.015450996       100126.61       100116.12       100135.87       100135.19       100075.01       100113.29       100134.31       100119.87       100134.62       100118.57       100126.08       100115.73       100136.06       100120.15       100138.26       100129.96       100142.29       100127.33
    0.015457936       100126.55       100116.58       100136.47       100135.36       100074.75       100112.85       100134.25       100119.92       100134.02       100118.48       100126.02       100115.89       100136.07       100119.96       100138.29       100130.11       100142.46        100127.3
     0.01546501       100126.57       100117.11       100137.14       100135.59       100075.17       100113.13       100134.26       100120.05       100133.36       100118.45       100126.02       100116.11       100136.15       100119.86       100138.38        100130.3       100142.68       100127.34
     0.01547212       100126.46       100117.54       100137.69       100135.69       100076.03       100112.76       100134.15       100119.99       100132.59       100118.29       100125.92       100116.19        100136.1       100119.59        100138.4       100130.39       100142.88       100127.27
    0.015479253       100126.36       100117.97       100138.26       100135.78       100077.37       100112.41       100134.02       100120.03       100131.78       100118.12       100125.82       100116.27       100136.05       100119.33       100138.42       100130.45       100142.99        100127.2
    0.015486418       100126.31       100118.43       100138.86       100135.87       100079.47       100112.05       100133.94        100120.1       100131.12       100117.99       100125.77       100116.42       100136.02       100119.08       100138.48       100130.64       100143.13       100127.18
    0.015493627       100126.23       100118.86       100139.44       100135.93       100081.83       100111.45       100133.83       100120.17       100130.42       100117.82       100125.71       100116.49       100135.96       100118.78       100138.56       100130.79       100143.25       100127.14
    0.015500892       100126.19       100119.29       100140.03       100135.96       100084.47       100110.97       100133.72       100120.25       100129.79       100117.67       100125.67       100116.63       100135.91       100118.52       100138.69       100131.04       100143.42       100127.14
    0.015508223       100126.12       100119.67       100140.61       100135.95       100087.27       100110.31        100133.6       100120.31       100129.16       100117.49       100125.63       100116.71        100135.8        100118.2        100138.8       100131.23       100143.56       100127.13
    0.015515637       100126.08       100120.05       100141.18       100135.91          100090       100109.75       100133.51       100120.43        100128.8       100117.32       100125.62       100116.83        100135.7       100117.88       100138.94       100131.47       100143.84       100127.14
    0.015523156       100126.03       100120.41       100141.73       100135.84        100092.7       100109.16       100133.39        100120.5       100128.11       100117.14       100125.62       100116.94       100135.56       100117.53        100139.1        100131.7       100144.06       100127.15
    0.015530801          100126       100120.75       100142.27       100135.75       100095.25       100108.54       100133.29       100120.59       100127.84       100116.95       100125.64       100117.04        100135.4       100117.16       100139.28       100131.91        100144.2       100127.19
    0.015538538       100125.96       100121.08       100142.76        100135.6       100097.66       100107.94       100133.17       100120.67       100127.73       100116.75       100125.67       100117.13        100135.2       100116.74        100139.5       100132.15       100144.42       100127.21
    0.015546334        100126.1       100121.58       100143.41        100135.6       100100.14       100107.51       100133.19       100120.92        100127.6       100116.71       100125.88       100117.41       100135.15       100116.42       100139.83       100132.56       100144.67       100127.42
    0.015553905       100125.95       100121.83       100143.74       100135.29       100102.06       100106.79       100132.94       100120.88       100127.27       100116.38       100125.82       100117.39        100134.8       100115.81       100139.87       100132.67        100144.8       100127.34
    0.015561197       100125.86       100122.15        100144.1       100135.02       100103.76       100106.13       100132.75       100120.88       100126.97       100116.06        100125.8       100117.41       100134.45        100115.2       100139.93       100132.82       100144.73       100127.29
    0.015568291       100125.82       100122.56       100144.49       100134.76       100105.51        100105.6       100132.58       100120.93       100126.94       100115.92       100125.84       100117.47       100134.16        100114.6       100140.03       100133.03       100144.72       100127.31
     0.01557527       100125.81       100123.04       100144.89        100134.5       100107.05       100105.15       100132.45       100121.01       100126.89        100115.7       100125.91       100117.58       100133.84       100114.04        100140.2       100133.25       100144.87       100127.36
    0.015582223       100125.82       100123.58       100145.28       100134.23       100108.54       100104.74       100132.34       100121.12       100127.01       100115.57       100126.01        100117.7        100133.5       100113.47       100140.29        100133.5       100144.87       100127.42
    0.015589205       100125.84       100124.13       100145.62       100133.92       100109.97       100104.35       100132.23        100121.2       100127.14       100115.43       100126.09       100117.83       100133.16       100112.88       100140.37       100133.76       100144.85        100127.5
    0.015596264       100125.83       100124.67       100145.87       100133.53       100111.31       100103.95       100132.07       100121.24       100127.26       100115.23       100126.15       100117.91       100132.76       100112.23       100140.41       100133.99       100144.63       100127.54
    0.015603486       100125.81       100125.23       100146.09       100133.09       100112.62       100103.63        100131.9        100121.3       100127.39       100115.06       100126.21       100118.01       100132.32       100111.58       100140.44       100134.22       100144.48       100127.58
    0.015610968       100125.76       100125.78       100146.24       100132.59       100113.87        100103.3       100131.71       100121.32       100127.44       100114.86       100126.22       100118.07       100131.81       100110.89        100140.4       100134.44       100144.17        100127.6
    0.015618806       100125.73       100126.37       100146.41       100132.04       100115.15       100103.01       100131.52       100121.39       100127.51       100114.69       100126.26       100118.17       100131.27       100110.22        100140.4       100134.62       100143.89       100127.64
    0.015626993       100125.86       100127.14       100146.74       100131.59       100116.57       100102.84       100131.52       100121.62        100127.7       100114.66       100126.46       100118.42       100130.87       100109.77       100140.54       100134.99       100143.73       100127.85
    0.015635254       100125.77        100127.7       100146.89        100130.9       100117.74       100102.51       100131.26       100121.62       100127.57       100114.43       100126.43       100118.45       100130.23       100109.15       100140.43       100135.08       100143.39       100127.83
    0.015643481       100125.65       100128.19       100146.99       100130.14       100118.82       100102.15          100131        100121.6       100127.27       100114.17       100126.37       100118.44       100129.59       100108.57       100140.23       100135.11       100143.03       100127.76
    0.015651659       100125.57       100128.68       100147.12        100129.4       100119.86       100101.88       100130.77       100121.62        100126.8       100113.96       100126.32       100118.45       100128.97       100108.15       100140.08       100135.17        100142.8       100127.74
    0.015659805       100125.53       100129.15       100147.25       100128.72       100120.89        100101.7        100130.6       100121.69       100126.28       100113.81       100126.31       100118.54        100128.4       100107.87        100139.9       100135.16        100142.7       100127.75
    0.015667937        100125.5       100129.59       100147.33          100128       100121.84       100101.54       100130.44       100121.76       100125.57       100113.69       100126.31        100118.6       100127.87       100107.65       100139.86       100135.23       100142.62       100127.77
    0.015676069       100125.49       100129.97       100147.34       100127.31       100122.72       100101.41       100130.29       100121.82       100124.76       100113.59       100126.29       100118.65       100127.37       100107.57       100139.74       100135.26       100142.68       100127.79
    0.015684217       100125.46       100130.34        100147.3        100126.6       100123.55       100101.35       100130.14       100121.89       100123.83       100113.47       100126.26       100118.69       100126.85       100107.56       100139.65       100135.22       100142.69        100127.8
     0.01569234       100125.52       100130.79        100147.3       100126.01       100124.38       100101.37       100130.08       100122.01        100122.7       100113.46       100126.31       100118.79        100126.5       100107.69        100139.7       100135.23        100142.8       100127.89
    0.015700322       100125.46       100131.16       100147.16       100125.36       100125.03       100101.33       100129.92       100122.05       100121.72       100113.34       100126.25       100118.77        100126.1        100107.8       100139.59       100135.08        100142.8       100127.86
    0.015708159        100125.5       100131.61       100147.07       100124.81        100125.7       100101.34       100129.85       100122.14       100121.01       100113.31       100126.26       100118.83       100125.83       100108.04       100139.56       100135.04       100142.82        100127.9
    0.015715862        100125.5       100132.06       100146.97       100124.32       100126.27       100101.36       100129.78       100122.21       100120.46       100113.25       100126.24       100118.84        100125.6        100108.3       100139.47       100134.94       100142.79       100127.91
    0.015723446       100125.52       100132.54       100146.87       100123.86       100126.84       100101.35       100129.72       100122.27        100120.2       100113.22       100126.24       100118.87       100125.47       100108.65        100139.5       100134.83       100142.74       100127.95
     0.01573093       100125.56       100133.01        100146.8       100123.46       100127.35       100101.44       100129.65       100122.38       100120.16        100113.2       100126.24        100118.9       100125.41       100109.06       100139.51       100134.82       100142.76          100128
    0.015738335       100125.57       100133.44       100146.72       100123.08        100127.8       100101.43       100129.59       100122.44       100120.22       100113.17       100126.22       100118.91       100125.41       100109.46       100139.44       100134.74       100142.66       100128.03
    0.015745683       100125.59       100133.86       100146.67       100122.75       100128.22       100101.67       100129.56       100122.47       100120.64       100113.14       100126.22       100118.91       100125.53       100109.87       100139.44       100134.65       100142.67       100128.07
    0.015752995        100125.6       100134.25       100146.68       100122.48       100128.62       100101.72       100129.52       100122.49       100121.18       100113.11       100126.21       100118.94        100125.7       100110.31       100139.46       100134.55       100142.73       100128.11
    0.015760293        100125.6        100134.6       100146.71       100122.19       100128.97       100101.94       100129.49       100122.49       100121.52       100113.09       100126.19       100118.92       100125.96       100110.75        100139.4       100134.45        100142.7       100128.13
    0.015767601        100125.6       100134.93       100146.77       100121.97       100129.33       100102.16       100129.49       100122.47       100122.14       100113.05       100126.18       100118.91       100126.31       100111.14       100139.31        100134.4       100142.69       100128.17
     0.01577494       100125.58       100135.22       100146.86       100121.79       100129.67       100102.43       100129.47       100122.45       100122.89       100113.02       100126.15       100118.89       100126.71       100111.65       100139.19       100134.28       100142.69       100128.19
    0.015782335       100125.58       100135.49       100146.96       100121.64       100130.05       100102.71       100129.48       100122.41        100123.7       100112.99       100126.14       100118.88       100127.18       100112.15       100139.06       100134.21       100142.78       100128.23
    0.015789787       100125.55       100135.71       100147.05       100121.53       100130.43       100103.01       100129.49       100122.31       100124.66       100112.94       100126.12       100118.86       100127.68        100112.7       100138.84        100134.1       100142.79       100128.24
    0.015797317       100125.52       100135.89       100147.13       100121.41       100130.83       100103.38       100129.51       100122.21       100125.64       100112.89       100126.09       100118.84       100128.16       100113.22       100138.65          100134       100142.79       100128.26
    0.015804949       100125.49       100136.04       100147.18       100121.37       100131.27       100103.77       100129.54       100122.12        100126.7       100112.84       100126.05       100118.81       100128.63       100113.91       100138.38       100133.91       100142.86       100128.28
    0.015812663       100125.48       100136.16       100147.23       100121.36       100131.75       100104.17        100129.6       100121.99       100127.85       100112.81       100126.04       100118.81        100129.1       100114.57       100138.07       100133.82       100142.91       100128.33
    0.015820421       100125.43        100136.2       100147.24        100121.3        100132.2       100104.58       100129.65       100121.77       100129.15       100112.75       100125.99       100118.76       100129.46       100115.21       100137.75        100133.7       100142.96       100128.33
     0.01582823       100125.39       100136.22       100147.24       100121.31       100132.69       100105.05       100129.73       100121.63       100130.35        100112.7       100125.95       100118.75       100129.75       100115.96       100137.46       100133.58       100143.06       100128.34
    0.015836098       100125.36       100136.24       100147.23       100121.32       100133.17       100105.52       100129.82       100121.45       100131.61       100112.67       100125.91       100118.74       100129.93       100116.68       100137.21       100133.47       100143.05       100128.37
    0.015844025       100125.31       100136.26       100147.21        100121.3       100133.66       100106.05       100129.92        100121.2       100132.82       100112.64       100125.87       100118.76       100129.96       100117.45       100136.94       100133.35       100142.95       100128.39
     0.01585201       100125.29        100136.3       100147.18       100121.38       100134.15       100106.61       100130.05       100120.96       100133.79       100112.62       100125.83       100118.78        100129.9       100118.27       100136.73       100133.24       100143.04       100128.42
    0.015860051       100125.28       100136.35       100147.17       100121.42       100134.59       100107.18       100130.21       100120.67       100134.84       100112.63       100125.81       100118.78       100129.69       100119.09       100136.54       100133.14       100143.07       100128.47
    0.015868139       100125.22       100136.39        100147.1       100121.48       100135.01       100107.75       100130.36       100120.26       100135.74        100112.6       100125.75       100118.78       100129.31       100119.97       100136.44       100133.01       100143.14       100128.49
    0.015876265       100125.19       100136.43       100147.05       100121.55       100135.36       100108.33       100130.53       100119.94       100136.31       100112.61       100125.72       100118.79       100128.82       100120.85       100136.39       100132.91        100143.2       100128.52
    0.015884369       100125.17       100136.46       100147.02       100121.64       100135.67       100108.92       100130.73       100119.58       100136.77       100112.65        100125.7       100118.82       100128.26       100121.75       100136.41        100132.8       100143.18       100128.57
    0.015892414        100125.1        100136.4       100146.95       100121.67        100135.9       100109.41       100130.91       100119.16       100136.93        100112.6       100125.63       100118.82       100127.63       100122.57        100136.3       100132.67       100143.16       100128.56
    0.015900426       100125.03       100136.34        100146.9       100121.73       100136.06       100109.89       100131.11       100118.68       100137.05       100112.64       100125.58       100118.81       100127.01       100123.37       100136.23       100132.54       100142.99       100128.56
     0.01590843       100124.96       100136.23       100146.84       100121.77       100136.19       100110.36       100131.31       100118.24       100137.01       100112.62       100125.54       100118.81        100126.4       100124.02       100136.35       100132.42       100142.92       100128.57
    0.015916428       100124.98       100136.18       100146.86       100121.91       100136.33       100110.92       100131.58       100117.82       100136.98        100112.7       100125.58       100118.89       100125.93       100124.71       100136.25       100132.39       100142.89       100128.65
    0.015924344       100124.89       100135.99       100146.76       100121.94       100136.36       100111.32        100131.8        100117.3       100136.73       100112.71       100125.53       100118.85       100125.47       100125.24       100136.11       100132.25       100142.68       100128.63