# Probe 0 (0 0.005 0)
# Probe 1 (-0.01 -0.005 0)
# Probe 2 (0.01 -0.005 0)
# Probe 3 (0 -0.005 0.01)
# Probe 4 (0 -0.005 -0.01)
# Probe 5 (-0.01 0.005 0)
# Probe 6 (0.01 0.005 0)
# Probe 7 (0 0.005 0.01)
# Probe 8 (0 0.005 -0.01)
# Probe 9 (-0.005 0.005 0)
# Probe 10 (0.005 0.005 0)
# Probe 11 (0 0.005 0.005)
# Probe 12 (0 0.005 -0.005)
# Probe 13 (-0.01 0.015 0)
# Probe 14 (0.01 0.015 0)
# Probe 15 (0 0.015 0.01)
# Probe 16 (0 0.015 -0.01)
# Probe 17 (0 0.015 0)
#         Probe               0               1               2               3               4               5               6               7               8               9              10              11              12              13              14              15              16              17
#          Time
    0.015226418       100102.11       99960.892       100070.34       100124.32       100116.44       100112.84       100121.46       100100.52       100123.04       100103.12        100115.2       100106.55       100118.11       100116.72       100130.59       100104.62       100130.22       100118.15
    0.015232997        100102.1       99961.904       100071.77       100124.19       100115.95       100112.79       100120.58       100100.58       100122.85       100102.81       100114.96       100106.55       100118.24       100117.41       100130.46       100104.53       100130.36       100118.15
    0.015239634       100102.12       99963.535       100073.19       100124.05       100115.55       100112.81       100119.78        100100.7        100122.6       100102.54       100114.75       100106.57       100118.46       100118.16       100130.33       100104.47       100130.52       100118.18
    0.015246283       100102.13       99965.609       100074.54       100123.88       100115.24       100112.84       100119.04       100100.79       100122.36       100102.24        100114.5       100106.55        100118.6       100118.78       100130.17        100104.4       100130.64       100118.16
    0.015252939       100102.15       99968.044       100075.86       100123.71       100114.95       100112.87       100118.39        100100.9       100122.02       100101.91       100114.24       100106.56       100118.77       100119.31       100129.99       100104.33       100130.76       100118.15
    0.015259556       100102.31       99970.798       100077.23       100123.66       100114.69       100112.98       100117.92       100101.12       100121.81       100101.86       100114.08       100106.66       100119.02        100119.9       100129.94       100104.31       100130.99       100118.23
    0.015265968       100102.32        99973.41       100078.37       100123.49       100114.25       100112.89       100117.32       100101.16       100121.48        100101.5       100113.77       100106.59        100119.1       100120.16       100129.69       100104.18        100131.1       100118.12
    0.015272191       100102.42       99976.006       100079.51       100123.43       100113.79       100112.83       100116.84       100101.25       100121.14       100101.19        100113.5       100106.58       100119.23       100120.51       100129.47       100104.05       100131.18       100118.07
    0.015278261       100102.59        99978.48       100080.63       100123.42       100113.33       100112.74       100116.41       100101.37       100120.91       100100.94       100113.27       100106.61       100119.36       100120.74        100129.3          100104       100131.27       100118.04
    0.015284209       100102.84       99980.815       100081.78       100123.51       100112.94       100112.63       100116.07       100101.55       100120.66       100100.84       100113.08       100106.69       100119.55       100121.05       100129.15       100104.07       100131.39       100118.06
     0.01529006       100103.12       99982.989       100082.91       100123.67       100112.53       100112.45       100115.71       100101.72       100120.48       100100.69       100112.88       100106.76       100119.71       100121.21          100129          100104       100131.49       100118.05
    0.015295835       100103.44       99984.993       100084.05       100123.87       100112.13       100112.22       100115.43        100101.9       100120.28       100100.59        100112.7       100106.85       100119.86       100121.39       100128.82       100103.96       100131.68       100118.05
    0.015301554       100103.78       99986.915       100085.18       100124.11       100111.71       100111.91       100115.15       100102.06       100120.12       100100.48       100112.51       100106.93          100120       100121.47       100128.64       100103.95       100131.77       100118.04
    0.015307233       100104.12       99988.763       100086.32       100124.37       100111.28       100111.54       100114.91       100102.22       100119.99       100100.36       100112.29          100107       100120.09       100121.39       100128.42       100103.93       100131.87       100118.02
    0.015312889       100104.48       99990.576       100087.47       100124.65       100110.84       100111.12       100114.69       100102.42       100119.91       100100.28        100112.1       100107.09        100120.2       100121.46       100128.18       100103.89       100131.96          100118
    0.015318536       100104.83       99992.355       100088.61       100124.92       100110.36       100110.61        100114.5       100102.58       100119.86       100100.17       100111.88       100107.15       100120.28       100121.34        100127.9       100103.83          100132       100117.96
    0.015324185        100105.2       99994.163       100089.76       100125.16       100109.88       100110.06        100114.3       100102.72        100119.8       100100.07       100111.66       100107.24       100120.35       100121.23       100127.62       100103.76       100132.04       100117.92
    0.015329848       100105.53       99995.959        100090.9       100125.35       100109.41       100109.47       100114.14       100102.94       100119.79       100099.99       100111.47       100107.33        100120.4       100120.87       100127.29       100103.71       100132.06       100117.88
    0.015335536       100105.85       99997.698          100092       100125.46       100108.93       100108.82       100113.92        100103.1       100119.79       100099.89       100111.25        100107.4       100120.42       100120.67       100126.95       100103.64        100132.1       100117.82
    0.015341261       100106.16       99999.446        100093.1       100125.59       100108.53       100108.17       100113.68       100103.24       100119.86       100099.81       100111.06        100107.5       100120.48       100120.48       100126.59       100103.62        100132.1        100117.8
    0.015346974       100106.43       100001.12       100094.13       100125.68       100108.15       100107.48       100113.46       100103.52       100119.92       100099.76       100110.85       100107.58       100120.49          100120       100126.17       100103.59       100132.13       100117.74
    0.015352641       100106.63        100002.7       100095.06       100125.78       100107.84       100106.75       100113.12       100103.66       100119.96       100099.62       100110.62       100107.63       100120.45        100119.7        100125.7       100103.48       100132.06       100117.66
     0.01535827       100106.78       100004.25       100095.93       100125.93       100107.62       100106.03       100112.79       100103.86       100120.01       100099.56        100110.4        100107.7       100120.45       100119.37       100125.22       100103.42       100132.01       100117.59
    0.015363869       100106.93       100005.79       100096.75       100126.14       100107.53       100105.34       100112.46       100104.06       100120.08       100099.47       100110.19       100107.79       100120.43       100119.09       100124.73       100103.38       100131.99       100117.54
    0.015369447       100107.03       100007.31        100097.5        100126.4       100107.57       100104.66       100112.07       100104.29       100120.17       100099.44          100110       100107.89       100120.42       100118.89       100124.19       100103.35       100131.93       100117.48
    0.015375011        100107.1       100008.81       100098.16       100126.68        100107.7       100104.01       100111.65       100104.52       100120.26       100099.34        100109.8       100107.96       100120.39       100118.79       100123.65       100103.32        100131.9       100117.42
    0.015380569       100107.12       100010.29       100098.75       100126.98       100107.91       100103.39       100111.18       100104.76       100120.32       100099.27        100109.6       100108.08       100120.33       100118.85        100123.1       100103.33       100131.85       100117.37
    0.015386128       100107.14        100011.8       100099.28       100127.29       100108.25       100102.82       100110.67          100105       100120.41        100099.2       100109.41       100108.17        100120.3          100119        100122.5       100103.33        100131.8       100117.32
    0.015391696       100107.13       100013.39       100099.75       100127.59       100108.68       100102.28       100110.15       100105.23       100120.49       100099.14       100109.24       100108.29       100120.26       100119.17       100122.01       100103.36       100131.75       100117.29
    0.015397281        100107.1       100015.08       100100.12       100127.86       100109.18       100101.77       100109.55       100105.49       100120.57       100099.07       100109.03       100108.39       100120.22       100119.33       100121.39       100103.39       100131.71       100117.24
    0.015402887       100107.05       100016.96       100100.44       100128.08       100109.77       100101.32       100108.94       100105.75       100120.66       100098.99       100108.84       100108.49       100120.17       100119.72       100120.79       100103.43       100131.66       100117.18
    0.015408522          100107       100019.11       100100.69       100128.26       100110.43       100100.92       100108.29       100106.03       100120.76       100098.93       100108.64       100108.61       100120.13       100120.08       100120.35       100103.51        100131.6       100117.15
    0.015414192       100106.93       100021.58       100100.88       100128.39       100111.17       100100.57       100107.62       100106.32        100120.9       100098.83       100108.44       100108.74        100120.1       100120.62       100119.66       100103.57       100131.56       100117.11
    0.015419903       100106.86       100024.35          100101       100128.47       100111.95       100100.27       100106.96       100106.59       100121.04       100098.73       100108.24       100108.85       100120.07       100121.15       100119.16       100103.64       100131.53       100117.06
     0.01542566       100106.76       100027.42       100101.07       100128.55       100112.74       100100.03       100106.24       100106.87       100121.21        100098.6       100108.02       100108.97       100120.03       100121.83       100118.57       100103.74       100131.45       100117.02
    0.015431468       100106.66       100030.68       100101.09       100128.64       100113.54       100099.85       100105.53       100107.18       100121.41       100098.48       100107.79       100109.09          100120       100122.51       100118.03       100103.82       100131.38       100116.97
    0.015437329       100106.62       100034.05       100101.13       100128.81       100114.39       100099.79       100104.89       100107.56       100121.66       100098.41       100107.61       100109.26       100119.98       100123.14       100117.53       100104.01       100131.35       100116.98
    0.015443202       100106.46       100037.26       100101.06       100128.94       100115.12        100099.7       100104.21       100107.84       100121.87       100098.24       100107.35       100109.35       100119.93       100123.66       100116.96       100104.11       100131.27        100116.9
    0.015449075       100106.38       100040.28       100100.99       100129.13       100115.84        100099.7       100103.58       100108.14       100122.13       100098.09       100107.09       100109.46        100119.9       100124.05       100116.39       100104.22       100131.14       100116.84
    0.015454953       100106.28       100043.03       100100.92       100129.37        100116.5       100099.73       100103.04       100108.48       100122.41       100097.94       100106.85       100109.56       100119.87       100124.53       100115.82       100104.37       100131.04        100116.8
    0.015460838       100106.17       100045.48       100100.85       100129.65       100117.12       100099.79        100102.5        100108.8        100122.7       100097.79       100106.59       100109.69       100119.82        100124.8       100115.27       100104.54       100130.94       100116.75
    0.015466735       100106.06       100047.81        100100.8       100129.98       100117.68       100099.88       100102.07       100109.13       100123.03       100097.64       100106.33        100109.8       100119.83       100124.98       100114.65       100104.71       100130.84       100116.71
    0.015472647       100105.95        100050.2       100100.78       100130.33       100118.19       100099.96       100101.73       100109.48       100123.35       100097.49       100106.08       100109.92       100119.84       100125.03       100113.97       100104.91       100130.73       100116.67
    0.015478578       100105.86       100052.72       100100.79       100130.73       100118.67       100100.05       100101.47       100109.85       100123.67       100097.37       100105.85       100110.06       100119.84       100125.28       100113.28       100105.15       100130.66       100116.65
    0.015484531       100105.75       100055.29       100100.82       100131.15        100119.1       100100.09        100101.2       100110.22       100124.01       100097.24       100105.61       100110.19       100119.87       100125.08       100112.56        100105.4       100130.58       100116.63
     0.01549051       100105.64       100057.89       100100.86       100131.59        100119.5       100100.11       100101.04       100110.59       100124.36       100097.11       100105.36       100110.31       100119.92       100124.95       100111.76       100105.63       100130.47       100116.61
    0.015496515       100105.54       100060.37       100100.88       100132.03       100119.86       100100.06       100100.82       100110.96       100124.68       100097.09       100105.11       100110.43       100119.95          100125       100110.86       100105.89        100130.4       100116.59
     0.01550255       100105.42       100062.67       100100.89        100132.5       100120.15       100099.97       100100.52       100111.33       100125.01       100096.85       100104.87       100110.54       100120.02       100124.57       100109.89       100106.14       100130.29       100116.57
    0.015508617       100105.31       100064.76       100100.86       100132.98       100120.36       100099.83       100100.35       100111.73       100125.35       100096.76       100104.65       100110.66       100120.11       100124.56       100108.86       100106.42       100130.24       100116.56
    0.015514715       100105.22       100066.59       100100.81       100133.48       100120.53       100099.67       100100.28       100112.11       100125.68       100096.66        100104.4       100110.78       100120.21        100124.1       100107.75        100106.7       100130.18       100116.55
    0.015520847       100105.12       100068.17       100100.68          100134       100120.66       100099.47       100099.93       100112.51       100126.01       100096.59       100104.17        100110.9        100120.3       100124.08       100106.57       100106.96       100130.05       100116.53
    0.015527011       100105.02       100069.54       100100.51       100134.53       100120.77       100099.25       100099.78       100112.92       100126.31       100096.49       100103.93          100111       100120.38       100123.96       100105.32       100107.26       100129.98       100116.52
    0.015533207       100104.92       100070.67        100100.3       100135.04       100120.88       100099.03       100100.09       100113.31       100126.64        100096.4        100103.7        100111.1       100120.51       100123.77       100104.06       100107.51       100129.89       100116.51
    0.015539435       100104.82       100071.69       100100.03       100135.58       100120.96       100098.76       100099.57       100113.69       100126.91       100096.32       100103.46        100111.2       100120.61       100123.71       100102.74       100107.76        100129.8        100116.5
    0.015545692       100104.73       100072.56       100099.74       100136.11       100121.01       100098.51       100099.48       100114.06       100127.17       100096.26       100103.23       100111.28       100120.72       100123.49       100101.41       100108.03       100129.69       100116.49
    0.015551977       100104.66       100073.33       100099.44       100136.65       100121.09       100098.26       100099.52       100114.44       100127.45       100096.21       100103.01        100111.4       100120.85       100123.34       100100.09        100108.3       100129.72       100116.49
    0.015558288       100104.57       100074.07        100099.1       100137.14       100121.14       100097.99       100099.38       100114.79       100127.66       100096.18       100102.79       100111.48       100120.97       100123.03       100098.78       100108.53       100129.63       100116.49
    0.015564623       100104.48        100074.8       100098.78       100137.63       100121.22       100097.69        100099.3       100115.19       100127.88       100096.13       100102.59       100111.58       100121.07       100122.75        100097.5       100108.79       100129.59        100116.5
    0.015570977       100104.41       100075.56       100098.47       100138.08       100121.33       100097.42        100099.2       100115.56       100128.06       100096.12        100102.4       100111.68       100121.18       100122.36       100096.28       100109.03       100129.51       100116.52
    0.015577351       100104.33       100076.36       100098.19       100138.47       100121.48       100097.13       100099.07       100115.91       100128.23       100096.09        100102.2       100111.78       100121.24       100122.08       100095.05       100109.26       100129.49       100116.53
     0.01558374       100104.26       100077.22       100097.93       100138.82       100121.66       100096.85       100098.88       100116.23       100128.36       100096.08       100102.02       100111.87       100121.35       100121.63       100093.98       100109.47       100129.56       100116.55
    0.015590144       100104.19       100078.09        100097.7       100139.11       100121.86       100096.54       100098.67       100116.57       100128.48       100096.04       100101.84       100111.97       100121.44       100121.27       100092.88       100109.68        100129.6       100116.58
    0.015596558       100104.15       100078.99       100097.52       100139.36       100122.12       100096.27       100098.47       100116.98       100128.56       100096.04       100101.69       100112.08       100121.55        100120.9       100091.86       100109.86       100129.54       100116.61
    0.015602982       100104.11       100079.89       100097.37       100139.56       100122.42       100096.01       100098.19       100117.28        100128.6       100096.04       100101.53       100112.18       100121.62       100120.65       100090.92       100110.04       100129.53       100116.65
    0.015609413       100104.07       100080.76       100097.26       100139.73       100122.76       100095.77       100097.88        100117.6        100128.6       100096.01       100101.37       100112.28       100121.71       100120.36       100090.01        100110.2       100129.55       100116.69
    0.015615851       100104.05        100081.6        100097.2       100139.86       100123.14       100095.59       100097.59        100117.9       100128.56       100096.02       100101.24       100112.39       100121.81       100120.08       100089.25       100110.36       100129.52       100116.73
    0.015622293       100104.03       100082.42       100097.16       100139.95       100123.57       100095.44       100097.13        100118.2       100128.48       100096.02       100101.11       100112.49       100121.91       100119.85       100088.54       100110.52       100129.51       100116.79
     0.01562874          100104        100083.2       100097.15          100140       100123.98       100095.31       100096.68       100118.49       100128.37       100096.03       100100.97        100112.6       100121.99       100119.59        100087.8       100110.65       100129.44       100116.84
     0.01563519       100103.99       100083.96       100097.17       100140.03       100124.38       100095.27       100096.17       100118.77       100128.21       100096.04       100100.85       100112.71        100122.1       100119.42       100087.32       100110.76       100129.43        100116.9
    0.015641642       100103.98       100084.71       100097.22       100140.05       100124.78       100095.25        100095.6       100119.06       100128.05       100096.06       100100.73       100112.83       100122.17       100119.22       100086.85       100110.87       100129.36       100116.97
    0.015648097       100103.95       100085.41       100097.28       100140.05       100125.11       100095.28       100094.94       100119.32       100127.85        100096.1       100100.61       100112.94       100122.22       100119.07       100086.41       100110.95       100129.28       100117.03
    0.015654554       100103.94       100086.08       100097.38       100140.08       100125.37       100095.35       100094.29       100119.59       100127.64       100096.12       100100.51       100113.07       100122.28       100118.99       100086.05       100111.03       100129.22       100117.11
    0.015661012       100103.91       100086.72       100097.49       100140.15       100125.57       100095.49       100093.63       100119.85       100127.39       100096.18       100100.41       100113.18       100122.38       100118.92       100085.86       100111.12       100129.11       100117.18
    0.015667473       100103.89       100087.31       100097.63       100140.26       100125.69       100095.64       100092.91       100120.12       100127.16       100096.24       100100.31       100113.31       100122.41       100118.97        100085.6       100111.15       100128.97       100117.26
    0.015673936       100103.86       100087.84       100097.79        100140.4       100125.74       100095.82       100092.33       100120.37       100126.86       100096.32       100100.22       100113.44       100122.49       100119.04       100085.52        100111.2       100128.88       100117.35
    0.015680401       100103.82       100088.31       100097.96       100140.57       100125.73       100096.01        100091.6        100120.6       100126.53        100096.4       100100.12       100113.57       100122.56       100119.17       100085.37        100111.2       100128.76       100117.43
     0.01568687       100103.76       100088.72       100098.13       100140.76       100125.64       100096.22       100091.15       100120.79       100126.11       100096.48       100100.02       100113.68       100122.59        100119.3       100085.37       100111.21       100128.63        100117.5
    0.015693343        100103.7       100089.07       100098.33       100140.99       100125.52       100096.48       100090.56       100121.03       100125.68       100096.58       100099.93        100113.8       100122.64        100119.5       100085.39        100111.2        100128.5       100117.58
     0.01569982       100103.62       100089.37       100098.55       100141.27       100125.37       100096.76        100090.1       100121.23       100125.16        100096.7       100099.84       100113.93       100122.68       100119.75       100085.47       100111.23       100128.39       100117.65
    0.015706303       100103.55       100089.66       100098.79       100141.55       100125.18       100097.09       100089.91       100121.43       100124.62       100096.82       100099.77       100114.06       100122.71       100120.02       100085.65       100111.17       100128.33       100117.74
    0.015712794       100103.43       100089.91       100099.04       100141.88       100124.94       100097.37       100089.46       100121.62       100123.97       100096.94       100099.69       100114.17       100122.75       100120.29       100085.84       100111.16       100128.22       100117.81
    0.015719291       100103.32       100090.17       100099.29       100142.22       100124.64       100097.68       100089.46       100121.82        100123.3       100097.07        100099.6       100114.29       100122.76       100120.58       100086.12       100111.11       100128.15       100117.88
    0.015725799       100103.22        100090.4       100099.57       100142.62       100124.28       100098.04       100089.35       100122.02       100122.57       100097.23       100099.55       100114.43       100122.81       100120.91       100086.51       100111.12       100128.11       100117.98
     0.01573228       100103.08       100090.61       100099.86          100143       100123.85       100098.39       100089.38       100122.19       100121.79       100097.35       100099.46       100114.55       100122.85        100121.2       100086.89       100111.08       100128.06       100118.05
    0.015738705       100102.94       100090.77       100100.17       100143.41       100123.36       100098.73       100089.39       100122.37       100120.99       100097.49       100099.39       100114.67       100122.86       100121.51       100087.38       100111.03          100128       100118.12
    0.015745095       100102.76       100090.79       100100.46       100143.77       100122.78       100099.04       100089.68       100122.53       100120.12       100097.63       100099.28       100114.76       100122.87        100121.8       100087.85       100110.92       100127.95       100118.17
    0.015751468       100102.64       100090.81       100100.81        100144.1        100122.2       100099.45       100090.22       100122.71       100119.24       100097.81       100099.22       100114.91       100122.95       100122.13       100088.43       100110.86       100127.98       100118.28
    0.015757743       100102.54        100090.8        100101.2       100144.45       100121.61       100099.94       100090.85       100122.95        100118.4       100098.04       100099.19       100115.09       100123.05       100122.45       100089.08       100110.87       100127.99        100118.4
    0.015763833       100102.34       100090.74       100101.53       100144.61       100120.91        100100.3       100091.52       100123.13       100117.48       100098.15        100099.1       100115.17       100123.04       100122.66       100089.65       100110.76       100127.93       100118.44
    0.015769734       100102.15       100090.62       100101.85       100144.73       100120.17       100100.67       100092.36       100123.23       100116.55       100098.27       100098.99       100115.27       100123.05       100122.82       100090.24       100110.66       100127.87       100118.48
     0.01577546       100101.98       100090.56       100102.21        100144.8       100119.43       100101.06       100093.41       100123.36       100115.68       100098.41       100098.91       100115.37       100123.07       100122.94       100090.83       100110.58       100127.84       100118.53
    0.015781034       100101.82        100090.5       100102.56       100144.77       100118.64       100101.47       100094.29       100123.55       100114.87       100098.55       100098.83       100115.48       100123.11       100123.02       100091.44       100110.51       100127.83       100118.59
    0.015786491       100101.68       100090.53       100102.94       100144.72       100117.83       100101.88       100095.38       100123.67       100114.09        100098.7       100098.79       100115.59       100123.15       100123.02       100092.11       100110.45       100127.79       100118.65
     0.01579187       100101.56       100090.58       100103.34        100144.6          100117       100102.28       100096.53       100123.81       100113.39       100098.84       100098.75        100115.7       100123.22       100122.94        100092.8       100110.34       100127.81       100118.74
     0.01579722       100101.45       100090.65       100103.75       100144.41       100116.11       100102.68       100097.49       100123.98       100112.78       100098.98       100098.74       100115.81       100123.27       100122.77       100093.43       100110.29       100127.75       100118.81
    0.015802594       100101.36       100090.76       100104.18       100144.19       100115.18       100103.12       100098.57       100124.14       100112.28       100099.15       100098.71       100115.92       100123.35       100122.48       100094.14       100110.19       100127.77        100118.9