# Probe 0 (0 0.005 0)
# Probe 1 (-0.01 -0.005 0)
# Probe 2 (0.01 -0.005 0)
# Probe 3 (0 -0.005 0.01)
# Probe 4 (0 -0.005 -0.01)
# Probe 5 (-0.01 0.005 0)
# Probe 6 (0.01 0.005 0)
# Probe 7 (0 0.005 0.01)
# Probe 8 (0 0.005 -0.01)
# Probe 9 (-0.005 0.005 0)
# Probe 10 (0.005 0.005 0)
# Probe 11 (0 0.005 0.005)
# Probe 12 (0 0.005 -0.005)
# Probe 13 (-0.01 0.015 0)
# Probe 14 (0.01 0.015 0)
# Probe 15 (0 0.015 0.01)
# Probe 16 (0 0.015 -0.01)
# Probe 17 (0 0.015 0)
#         Probe               0               1               2               3               4               5               6               7               8               9              10              11              12              13              14              15              16              17
#          Time
    0.047175337       100116.42       100141.77        100134.8       100119.56       100009.12       100123.07       100104.52       100116.09       100115.27       100115.54       100114.28       100116.66       100116.34       100097.73       100107.98       100113.61       100146.36       100115.16
    0.047182148       100116.46       100141.09       100134.04       100121.25       100007.59       100123.12       100104.67       100115.51       100114.42       100115.49       100114.21       100116.49        100116.1       100097.88       100107.78       100113.51       100146.58       100115.06
    0.047188698       100116.58       100140.61       100133.31       100122.85       100007.14       100123.25       100104.92       100115.02       100113.77       100115.55       100114.23       100116.42       100115.96       100098.17       100107.67       100113.41        100146.9       100115.06
    0.047195101       100116.68        100140.1       100132.52       100124.35       100007.85       100123.41       100105.19       100114.58       100113.22       100115.63       100114.27       100116.37       100115.83       100098.49       100107.56       100113.49       100147.26       100115.08
    0.047201467       100116.79       100139.56       100131.72       100125.78        100009.5       100123.57       100105.49       100114.06       100112.79       100115.73       100114.33       100116.35       100115.73       100098.86        100107.5       100113.56       100147.62       100115.13
    0.047207873       100116.88          100139       100130.88       100127.13        100011.6       100123.72       100105.82       100113.63       100112.47       100115.82       100114.41       100116.34       100115.62       100099.25       100107.43       100113.69          100148       100115.18
    0.047214387        100116.9       100138.37       100129.97        100128.4       100013.52       100123.82       100106.08       100113.11       100112.19        100115.9       100114.44       100116.29       100115.47       100099.72       100107.33       100113.78        100148.4        100115.2
    0.047221095       100116.88       100137.68       100129.07       100129.62       100014.93       100123.91       100106.38       100112.57       100111.99       100115.97       100114.46       100116.21       100115.27       100100.13       100107.21       100113.88       100148.75        100115.2
    0.047228056       100116.85       100137.03       100128.28        100130.8       100015.65       100123.98       100106.67       100112.03       100111.85       100116.04       100114.49       100116.14       100115.08       100100.78       100107.11       100113.96       100149.14       100115.21
      0.0472353       100116.77       100136.34       100127.55       100131.92       100015.69       100124.01       100106.97        100111.5        100111.7       100116.11       100114.49       100116.05       100114.82       100101.12       100106.96       100113.99       100149.56       100115.19
    0.047242837       100116.65        100135.7       100127.01       100132.94       100015.08       100124.02       100107.27       100110.95        100111.5       100116.16       100114.51       100115.95       100114.54       100101.42       100106.81       100113.97       100149.97       100115.16
    0.047250562       100116.58       100135.19       100126.65        100133.9       100013.79       100124.08        100107.6        100110.5       100111.25       100116.28       100114.59        100115.9       100114.29       100102.32       100106.69       100113.99       100150.46       100115.18
    0.047258364       100116.43       100134.68       100126.51       100134.67       100011.59       100124.03        100107.9       100109.97        100110.8       100116.31       100114.54       100115.77       100113.95       100102.75       100106.49       100113.87       100150.91       100115.11
    0.047266179       100116.24       100134.28       100126.55       100135.24       100008.27       100123.92       100108.14       100109.48       100110.11       100116.29       100114.47       100115.58       100113.54       100103.28       100106.23       100113.68       100151.28       100114.99
    0.047274055       100116.16       100134.05       100126.77       100135.79       100003.76       100123.88       100108.44       100109.09       100109.35       100116.36       100114.51       100115.47        100113.2       100103.77       100106.08       100113.51       100151.81       100114.95
    0.047281964       100116.13       100133.94       100127.19       100136.22        99997.76       100123.84       100108.77       100108.79       100108.47       100116.42       100114.55       100115.39       100112.86       100104.28       100105.93       100113.37       100152.34       100114.94
    0.047289821       100116.21          100134       100127.95       100136.63        99990.55       100123.86       100109.19        100108.6       100107.58       100116.57       100114.67       100115.38       100112.59       100104.84       100105.85       100113.22       100152.99       100114.98
     0.04729747       100116.19       100134.01       100128.79       100136.86       99982.587       100123.74       100109.46       100108.25       100106.58       100116.56       100114.68       100115.24        100112.2       100105.06       100105.65       100112.92       100153.46       100114.89
    0.047304945       100116.24       100134.13       100129.69       100137.11       99974.984       100123.66       100109.75       100108.06        100105.6       100116.59       100114.71       100115.16       100111.85       100105.15       100105.49       100112.68          100154       100114.86
    0.047312284       100116.36       100134.34       100130.73       100137.39       99968.622       100123.63       100110.08       100107.92        100104.7       100116.66       100114.84       100115.11       100111.54       100105.24       100105.39       100112.44        100154.6       100114.86
    0.047319517       100116.48        100134.6       100131.76        100137.7        99963.96       100123.59       100110.41       100107.81       100103.82       100116.71       100114.95       100115.07       100111.25       100105.19       100105.29       100112.21       100155.16       100114.88
    0.047326671       100116.63       100134.89       100132.84       100138.01       99960.393       100123.56       100110.76       100107.71       100102.96       100116.78       100115.05       100115.05       100110.97       100105.14        100105.2          100112       100155.74        100114.9
    0.047333766       100116.77       100135.22       100133.88       100138.29       99956.898       100123.57       100111.08       100107.68       100102.12       100116.83       100115.18       100115.02       100110.69       100104.91       100105.11        100111.8       100156.33       100114.94
    0.047340821       100116.89       100135.52       100134.85       100138.49       99952.608       100123.52       100111.41       100107.64       100101.27       100116.84       100115.28       100114.96       100110.38       100104.61          100105       100111.56        100156.9       100114.94
    0.047347851          100117       100135.83       100135.77       100138.56       99947.658       100123.47       100111.72       100107.65       100100.39       100116.85       100115.39        100114.9       100110.08       100104.24       100104.89       100111.34       100157.47       100114.95
    0.047354871       100117.11       100136.13       100136.58       100138.42       99942.839       100123.42       100112.04       100107.73       100099.49       100116.86        100115.5       100114.84       100109.77        100103.9       100104.79       100111.12       100158.03       100114.96
    0.047361895       100117.21        100136.4       100137.29       100137.99       99939.403       100123.41       100112.37       100107.85       100098.51       100116.85       100115.63       100114.79       100109.48       100103.55        100104.7       100110.89       100158.57       100114.97
    0.047368931        100117.3       100136.64        100137.9       100137.24        99938.77       100123.38       100112.69       100107.69       100097.43       100116.82       100115.73       100114.69       100109.17       100103.25       100104.59       100110.67       100159.08       100114.96
    0.047375994       100117.38       100136.82       100138.37       100136.24       99941.533       100123.34       100113.01       100107.74       100096.17       100116.77       100115.83        100114.6       100108.84       100103.02       100104.46       100110.51       100159.57       100114.95
    0.047383098       100117.47       100136.98       100138.77       100135.12       99947.772       100123.33       100113.33       100107.78        100094.8       100116.72       100115.95       100114.51       100108.54       100102.84       100104.35       100110.31       100160.05       100114.93
    0.047390261       100117.56        100137.1       100139.06       100133.98       99956.633       100123.32       100113.69       100107.87       100093.26       100116.65       100116.06       100114.41       100108.22       100102.65       100104.26       100110.13       100160.53       100114.92
    0.047397491       100117.65       100137.19       100139.23       100132.89       99966.955       100123.32       100114.03       100108.03        100091.6       100116.59       100116.18       100114.29       100107.92       100102.66       100104.14          100110       100160.95        100114.9
    0.047404799       100117.75       100137.23       100139.32       100131.98       99977.575       100123.32       100114.38       100108.11       100089.88        100116.5       100116.32       100114.18       100107.61       100102.68       100104.03       100109.86       100161.32       100114.88
    0.047412207       100117.85       100137.26       100139.33       100131.34       99987.458       100123.35       100114.76       100108.24       100088.18       100116.42       100116.46       100114.07        100107.3       100102.83       100103.92       100109.77       100161.71       100114.86
    0.047419737       100117.98       100137.31       100139.32       100131.03       99996.249       100123.42       100115.16       100108.44       100086.63       100116.38       100116.65       100113.99       100107.03       100102.99       100103.86       100109.77       100162.05       100114.87
    0.047427334       100118.04       100137.28        100139.2       100130.87       100003.73       100123.44       100115.54       100108.62       100085.25       100116.24       100116.79       100113.84       100106.71       100103.24       100103.74       100109.73       100162.29       100114.82
    0.047434918       100118.13       100137.28       100139.09        100130.8       100009.61       100123.51       100115.95       100108.88       100084.21       100116.16       100116.95       100113.75       100106.42       100103.55       100103.64       100109.71       100162.48       100114.79
    0.047442435       100118.15       100137.23       100138.94       100130.57       100013.91       100123.51       100116.31       100109.04       100083.46       100116.01       100117.08       100113.58       100106.09       100103.88        100103.5       100109.68       100162.55       100114.71
    0.047449909        100118.2        100137.2       100138.84       100130.18       100016.48       100123.54        100116.7       100109.27          100083       100115.89       100117.24       100113.45        100105.8       100104.24        100103.4        100109.7       100162.58       100114.66
    0.047457361       100118.26       100137.18        100138.8       100129.54       100017.56       100123.58       100117.12       100109.59       100082.79       100115.78       100117.43       100113.34       100105.53       100104.69        100103.3       100109.75       100162.58       100114.61
    0.047464815       100118.33       100137.18       100138.82       100128.65       100017.43       100123.63       100117.54       100109.82       100082.72       100115.68       100117.62       100113.23       100105.27        100105.1       100103.21       100109.83        100162.5       100114.58
    0.047472291       100118.39       100137.17       100138.89       100127.49       100016.36       100123.65       100117.95          100110        100082.7       100115.56       100117.82        100113.1       100105.02       100105.51       100103.15       100109.87       100162.36       100114.53
    0.047479808       100118.51       100137.22       100139.08       100126.18       100014.84       100123.72       100118.45       100110.39       100082.79       100115.52        100118.1       100113.05       100104.82       100105.98       100103.16       100109.96       100162.26       100114.55
    0.047487299       100118.56       100137.19       100139.26       100124.52       100013.15       100123.71       100118.86        100110.6       100082.82       100115.39        100118.3       100112.92       100104.56       100106.31       100103.08       100110.03       100161.98        100114.5
    0.047494751        100118.6       100137.16       100139.49       100122.67       100012.01       100123.67        100119.3       100110.77       100082.85       100115.24       100118.48       100112.76        100104.3        100106.6       100103.01       100110.07       100161.66       100114.42
    0.047502185       100118.68       100137.14       100139.73       100120.58       100011.37       100123.66       100119.79       100111.02       100082.93       100115.14       100118.73       100112.64       100104.07        100106.9       100102.98       100110.18       100161.33        100114.4
     0.04750962       100118.75       100137.11       100140.11       100118.22       100011.34       100123.62       100120.04        100111.2       100083.06       100115.03       100118.95       100112.52       100103.85       100107.14       100102.94       100110.24       100160.93       100114.36
    0.047517078       100118.83       100137.08       100140.41       100115.65       100011.68       100123.59       100120.46       100111.46       100083.14       100114.93       100119.19        100112.4       100103.63       100107.42       100102.92       100110.34        100160.5       100114.32
    0.047524576       100118.91       100137.04       100140.71       100112.82       100012.12       100123.55       100120.92       100111.67       100083.23       100114.84       100119.46       100112.28       100103.43       100107.65        100102.9       100110.46       100160.03       100114.29
    0.047532134       100118.98       100136.99       100140.96       100109.84       100012.46       100123.51       100121.29       100111.84        100083.3       100114.73       100119.71       100112.15       100103.21       100107.88       100102.89       100110.55       100159.53       100114.26
    0.047539772       100119.05       100136.93       100141.22       100106.72       100012.36       100123.45       100121.73       100111.98       100083.36       100114.64       100119.97       100112.03          100103       100108.11       100102.88        100110.7       100159.03       100114.25
    0.047547506       100119.08       100136.84       100141.48       100103.39       100011.91       100123.41       100122.03        100112.1       100083.37       100114.53       100120.25       100111.89       100102.78       100108.35       100102.87       100110.83       100158.44       100114.22
    0.047555356       100119.12       100136.77       100141.76       100099.76        100011.2       100123.35       100122.57       100112.23       100083.34       100114.43       100120.53       100111.77       100102.56       100108.61       100102.87       100110.96       100157.87       100114.22
    0.047563338       100119.14       100136.67       100142.04       100095.65       100010.46       100123.27          100123       100112.32       100083.27       100114.31       100120.85       100111.63       100102.34        100108.9       100102.89       100111.15       100157.24        100114.2
    0.047571471       100119.15       100136.57       100142.27       100090.89        100010.1       100123.18       100123.46       100112.32       100083.08       100114.19       100121.15       100111.49       100102.11       100109.22       100102.88       100111.32       100156.62        100114.2
    0.047579771       100119.17       100136.47       100142.43       100085.72       100010.77        100123.1       100123.89       100112.26       100082.85       100114.09       100121.51       100111.36        100101.9       100109.49       100102.92       100111.52       100155.96       100114.22
    0.047588163       100119.18       100136.39       100142.46       100080.84       100012.52       100123.02       100124.34       100112.21       100082.54       100113.98       100121.86       100111.24       100101.69       100109.79       100102.94       100111.72       100155.27       100114.25
    0.047596587       100119.13       100136.23       100142.32       100077.66       100015.17       100122.87       100124.77       100112.12       100082.11       100113.81       100122.19       100111.05       100101.42       100109.91       100102.92       100111.86       100154.52       100114.23
    0.047605052       100119.13       100136.12       100142.13       100077.78       100018.71       100122.78       100125.21       100111.99       100081.67       100113.69       100122.52       100110.91        100101.2       100110.06       100102.96       100112.03       100153.81       100114.26
    0.047613506       100119.25        100136.1       100142.03       100080.25       100023.03       100122.78       100125.75       100111.77       100081.35       100113.69       100122.91       100110.89        100101.1       100110.24        100103.1        100112.3       100153.18       100114.41
    0.047621783       100119.13       100135.83       100141.71       100082.26        100027.5       100122.54       100126.06       100111.35       100080.69       100113.44       100123.08       100110.61       100100.74       100110.13       100103.03       100112.32       100152.35       100114.33
    0.047630002       100119.15       100135.68       100141.57       100084.12       100032.28       100122.43       100126.48        100111.1       100080.22       100113.33       100123.36       100110.49       100100.51       100110.05       100103.07       100112.48       100151.65       100114.38
    0.047638136       100119.22       100135.56       100141.55       100086.25        100036.9       100122.36       100126.93        100110.8       100079.77       100113.25       100123.69        100110.4       100100.33       100110.02       100103.17       100112.67       100151.01       100114.47
    0.047646229       100119.25       100135.39       100141.61       100088.57       100041.18       100122.26       100127.36       100110.44       100079.31       100113.14        100123.9       100110.28       100100.09       100109.84       100103.24       100112.83       100150.35       100114.53
    0.047654374       100119.33       100135.24        100141.8       100091.12       100044.84       100122.18        100127.8       100110.15       100078.89       100113.05       100124.14        100110.2       100099.91       100109.69       100103.36       100113.03       100149.74       100114.63
    0.047662584       100119.46       100135.11       100142.09       100093.81       100047.56       100122.13       100128.28       100109.93       100078.57          100113       100124.32       100110.19       100099.77       100109.61       100103.51       100113.27       100149.18       100114.77
     0.04767075        100119.5       100134.87       100142.31       100096.47       100049.12          100122        100128.7       100109.63       100078.13       100112.89        100124.4       100110.08       100099.52       100109.53       100103.59       100113.43       100148.56       100114.83
    0.047678841       100119.57       100134.63       100142.55       100098.82       100050.17       100121.87       100129.12       100109.39       100077.81       100112.78       100124.45          100110       100099.33       100109.43        100103.7       100113.58       100147.98        100114.9
    0.047686869       100119.55       100134.29       100142.66       100101.19       100051.16       100121.69       100129.48       100109.07       100077.35        100112.6       100124.38       100109.86       100099.05       100109.31       100103.75       100113.62       100147.34        100114.9
    0.047694912       100119.63          100134       100142.77       100103.32       100052.68       100121.59       100129.91       100108.88       100077.13        100112.5        100124.3       100109.81       100098.88       100109.38       100103.92       100113.67       100146.78          100115
    0.047702906       100119.68       100133.66       100142.79       100104.99       100054.82       100121.47       100130.32       100108.77       100076.92       100112.39       100124.25       100109.76        100098.7       100109.43       100104.07       100113.65       100146.19       100115.08
    0.047710855       100119.64       100133.18       100142.68       100106.16       100057.51       100121.22       100130.62       100108.59       100076.62       100112.16          100124       100109.63       100098.43       100109.45       100104.13       100113.43        100145.5       100115.06
    0.047718754       100119.76       100132.83       100142.77       100107.19       100060.78       100121.16       100131.08        100108.6        100076.5        100112.1       100123.94       100109.66       100098.34        100109.7       100104.37       100113.26       100144.93       100115.21
    0.047726483       100119.67       100132.23       100142.74       100107.75       100064.12       100120.91       100131.33       100108.46       100076.33       100111.83       100123.54       100109.51       100098.07       100109.73       100104.39       100112.78       100144.12       100115.13
    0.047734172       100119.67       100131.67       100142.96       100108.37        100067.4       100120.71       100131.65       100108.39       100076.07       100111.65       100123.21       100109.46       100097.89        100109.9       100104.53       100112.36       100143.39       100115.16
    0.047741921       100119.69       100131.06       100143.38       100109.05       100070.13        100120.5       100131.98       100108.45       100076.03       100111.46       100122.87       100109.44       100097.73       100110.12       100104.69       100111.88        100142.6       100115.19
    0.047749771       100119.68       100130.36       100143.98       100109.69       100072.09       100120.26       100132.27       100108.38       100075.92       100111.25        100122.5       100109.42       100097.58       100110.36       100104.84       100111.38       100141.69       100115.21
    0.047757755       100119.72       100129.61       100144.82       100110.42       100073.65       100120.05       100132.62       100108.44          100076       100111.08       100122.14       100109.44       100097.47       100110.64       100105.06       100110.93       100140.75       100115.27
    0.047765777       100119.68       100128.69       100145.66       100111.05       100075.19       100119.68       100132.88       100108.44       100075.68       100110.79       100121.82       100109.39       100097.29       100110.83       100105.16       100110.41       100139.64       100115.21
    0.047773794       100119.59       100127.65       100146.57       100111.61       100076.98       100119.38       100133.08       100108.43       100075.83       100110.47       100121.55        100109.3       100097.07       100111.04       100105.26       100109.95       100138.41       100115.14
    0.047781863       100119.65       100126.63       100147.66       100112.22       100079.03       100119.13       100133.38       100108.59       100075.68        100110.3       100121.62       100109.37          100097       100111.36        100105.5       100109.68       100137.24       100115.18
    0.047789887       100119.57       100125.35       100148.62        100112.9       100080.95       100118.74       100133.57       100108.61        100075.9       100109.99       100121.19       100109.32       100096.81       100111.56        100105.6       100109.38       100135.93       100115.09
    0.047797857       100119.49       100123.93       100149.59       100113.48        100082.7        100118.3       100133.75       100108.66       100075.54       100109.68       100121.16       100109.27       100096.64       100111.75       100105.72       100109.15       100134.65       100115.01
     0.04780582       100119.49       100122.37       100150.66       100114.07       100084.17       100117.92       100134.01       100108.78       100075.78       100109.46       100121.03        100109.3       100096.54       100112.03        100105.9          100109       100133.35       100114.97
    0.047813781       100119.41       100120.47        100151.7       100114.71       100085.36       100117.55       100134.22       100108.88       100075.92       100109.19       100120.82       100109.27       100096.39       100112.19       100106.03       100108.82       100132.09       100114.87
    0.047821741       100119.41       100118.26       100152.68       100114.79       100086.77       100117.22       100134.51       100109.08       100076.18       100109.02       100120.79       100109.33       100096.32       100112.46       100106.23        100108.7        100130.9       100114.85
     0.04782966       100119.36       100115.53       100153.27       100114.66       100088.62       100116.83       100134.76       100109.13       100076.51       100108.79       100120.55       100109.34       100096.21       100112.63       100106.41       100108.53       100129.72       100114.77
     0.04783753       100119.26       100112.13       100153.35       100114.24       100090.96       100116.37       100135.01       100109.23       100076.71       100108.62       100120.53       100109.32       100096.07       100112.76       100106.53       100108.33       100128.54       100114.64
    0.047845409       100119.19       100108.22       100153.06       100113.15       100093.72       100115.95       100135.29       100109.36       100076.96       100108.48       100120.46       100109.35       100095.96       100112.89       100106.69       100108.14       100127.43       100114.54
    0.047853306       100119.26       100104.13       100152.62       100111.97       100096.71       100115.66        100135.7       100109.62       100077.47       100108.53       100120.51       100109.51          100096       100113.13       100106.99       100108.07       100126.48       100114.57
    0.047861072       100119.14       100100.22       100151.88       100110.16       100099.18       100115.16       100135.94       100109.67       100077.62       100108.42       100120.43       100109.48       100095.87       100113.17       100107.09       100107.82       100125.41        100114.4
    0.047868737       100119.09       100097.32       100151.17       100108.02       100101.15       100114.75       100136.21       100109.74       100077.83       100108.42       100120.44       100109.54       100095.81       100113.28       100107.27       100107.65       100124.52       100114.31
    0.047876195       100118.97       100095.57       100150.37       100105.62       100102.48       100114.27       100136.43       100109.83       100078.04        100108.4       100120.38       100109.52       100095.68       100113.24       100107.37        100107.4        100123.6       100114.13
    0.047883624       100118.97       100095.08       100149.67       100103.33       100103.68       100113.94       100136.73       100109.88        100078.1       100108.52       100120.48       100109.65        100095.7        100113.3        100107.6       100107.27       100122.84       100114.07
    0.047890959       100118.94       100095.42       100148.89       100101.19       100104.86       100113.56       100136.98       100109.93       100078.19       100108.64       100120.56       100109.74       100095.68       100113.35       100107.79       100107.14       100122.05       100113.98
    0.047898255        100118.8       100096.29       100148.01       100099.27       100106.07       100113.09       100137.12       100109.87       100077.99       100108.68       100120.54       100109.75       100095.56        100113.3       100107.89       100106.91       100121.16        100113.8