# Probe 0 (0 0.005 0)
# Probe 1 (-0.01 -0.005 0)
# Probe 2 (0.01 -0.005 0)
# Probe 3 (0 -0.005 0.01)
# Probe 4 (0 -0.005 -0.01)
# Probe 5 (-0.01 0.005 0)
# Probe 6 (0.01 0.005 0)
# Probe 7 (0 0.005 0.01)
# Probe 8 (0 0.005 -0.01)
# Probe 9 (-0.005 0.005 0)
# Probe 10 (0.005 0.005 0)
# Probe 11 (0 0.005 0.005)
# Probe 12 (0 0.005 -0.005)
# Probe 13 (-0.01 0.015 0)
# Probe 14 (0.01 0.015 0)
# Probe 15 (0 0.015 0.01)
# Probe 16 (0 0.015 -0.01)
# Probe 17 (0 0.015 0)
#         Probe               0               1               2               3               4               5               6               7               8               9              10              11              12              13              14              15              16              17
#          Time
  5.9132581e-06        100123.8       100057.77        100076.9       100140.83       100142.34       100114.56       100130.84       100094.49        100104.6       100107.18       100137.96       100112.68        100119.8       100157.18       100131.04       100120.58       100131.43       100126.61
  1.1820142e-05       100121.41       100060.78       100071.22        100138.2       100139.56        100112.2       100126.41        100092.6       100102.55       100104.76       100135.57       100110.46       100117.53       100155.77       100128.84       100118.54       100129.39       100124.35
  1.7720508e-05       100120.32       100065.13       100066.57       100136.88       100138.02       100111.06       100123.51       100092.02       100101.78        100103.6       100134.44       100109.53       100116.57       100155.56        100127.9       100117.71       100128.63       100123.38
  2.3617333e-05       100119.51       100069.48       100061.93       100135.85       100136.74       100110.15        100121.1       100091.71       100101.28       100102.71        100133.6       100108.87       100115.86       100155.53       100127.21       100117.11        100128.1       100122.67
  2.9514047e-05       100118.96       100073.69       100057.33       100135.12       100135.67       100109.46       100119.06       100091.71       100101.04       100102.09       100133.01       100108.46        100115.4        100155.7       100126.74       100116.73       100127.79        100122.2
  3.5414163e-05       100118.62       100077.41       100052.74       100134.66       100134.75       100108.94       100117.33        100091.9       100101.02       100101.67        100132.6       100108.26       100115.14       100156.01       100126.44       100116.56       100127.66       100121.93
  4.1318651e-05       100118.39       100079.63       100048.19       100134.39       100133.91        100108.5       100115.71       100092.24        100101.1       100101.37       100132.33       100108.18          100115       100156.42       100126.22       100116.46       100127.61       100121.78
  4.7230957e-05       100118.29       100080.46       100043.62        100134.3       100133.12       100108.14       100114.16       100092.74       100101.32        100101.2       100132.16       100108.23       100114.98       100156.86       100126.09       100116.48       100127.65       100121.73
  5.3155599e-05       100118.21       100080.85       100038.94       100134.32       100132.33       100107.78       100112.61       100093.24       100101.56       100101.05       100132.03        100108.3       100114.94       100157.32       100125.96       100116.52       100127.74       100121.71
   5.909731e-05        100118.2       100080.31       100034.09       100134.45       100131.55       100107.48       100111.07       100093.85        100101.9       100100.97       100131.95       100108.43          100115        100157.8       100125.85       100116.65       100127.84       100121.74
  6.5060884e-05       100118.22       100079.76          100029       100134.62       100130.78       100107.18       100109.57       100094.49       100102.21       100100.93       100131.89       100108.59       100115.08        100158.3       100125.76       100116.72       100127.98       100121.81
  7.1050997e-05       100118.25        100079.4       100023.66       100134.79          100130        100106.9       100108.07       100095.14       100102.59       100100.88       100131.85       100108.76       100115.18       100158.72       100125.67       100116.86       100128.12       100121.89
   7.707203e-05       100118.29       100079.15        100018.1       100134.92       100129.21       100106.62       100106.56       100095.84       100102.97       100100.82       100131.81       100108.96       100115.28        100159.1       100125.57       100117.03       100128.26       100121.98
   8.312789e-05       100118.35       100078.71       100012.54       100135.03       100128.41       100106.37       100105.13       100096.56       100103.36       100100.79       100131.78       100109.17        100115.4       100159.45       100125.48       100117.18       100128.32       100122.08
  8.9221848e-05        100118.4       100077.82       100007.02        100135.1       100127.64       100106.14       100103.67       100097.28       100103.76       100100.74       100131.74       100109.36       100115.48       100159.86       100125.39       100117.35        100128.4       100122.18
  9.5356428e-05       100118.49       100076.26       100001.64       100135.14       100126.85       100105.97       100102.43       100098.02       100104.16       100100.71       100131.73       100109.59       100115.62       100160.22       100125.33       100117.51       100128.44       100122.29
  0.00010153337       100118.55       100074.12       99996.578       100135.18       100126.07        100105.8       100101.36       100098.77       100104.57       100100.65       100131.69        100109.8       100115.74       100160.44       100125.26       100117.68       100128.45       100122.39
  0.00010775368        100118.6       100071.72       99992.055       100135.17       100125.29       100105.67       100100.63        100099.5       100104.95       100100.58       100131.63          100110       100115.84       100160.58       100125.22       100117.83       100128.49       100122.48
  0.00011401773       100118.66        100069.3       99988.178       100135.14       100124.48       100105.55       100100.25       100100.24       100105.35       100100.49       100131.56       100110.21       100115.94       100160.77       100125.19          100118       100128.43       100122.58
  0.00012032542        100118.7       100067.18       99984.977       100135.14       100123.68       100105.43       100100.27       100100.98       100105.73       100100.38       100131.48       100110.39       100116.03       100160.72       100125.16       100118.18       100128.34       100122.64
  0.00012667644       100118.75       100065.41       99982.807       100135.16       100122.91       100105.32        100100.7        100101.7       100106.12       100100.26       100131.38       100110.58       100116.12       100161.02       100125.17       100118.35       100128.27       100122.73
  0.00013307046       100118.77          100064       99981.404       100135.24       100122.15       100105.19       100101.52       100102.41       100106.51       100100.12       100131.28       100110.73       100116.19       100160.99       100125.15       100118.45        100128.1       100122.78
  0.00013950734       100118.83       100062.76       99980.893        100135.4       100121.44       100105.14       100102.75       100103.16       100106.98       100099.99       100131.19       100110.94       100116.29       100160.94        100125.2       100118.57          100128       100122.86
  0.00014598729       100118.87       100061.63       99981.637       100135.59       100120.78       100105.04       100104.21       100103.87        100107.4       100099.82       100131.06        100111.1       100116.38       100160.87       100125.24       100118.71       100127.81       100122.91
  0.00015251098       100118.91       100060.46        99983.49       100135.82       100120.09       100104.99       100105.94       100104.59       100107.84       100099.63       100130.93       100111.26       100116.45       100160.82       100125.31       100118.81       100127.57       100122.97
  0.00015907957       100118.96       100059.38       99985.926       100136.06       100119.39       100105.03       100107.84       100105.33       100108.34       100099.46       100130.82       100111.44       100116.54       100160.57       100125.42       100118.91       100127.37       100123.02
  0.00016569469          100119       100058.29       99989.145       100136.28       100118.58       100105.22       100109.83       100106.05       100108.82       100099.27       100130.67        100111.6        100116.6       100160.36       100125.55       100119.01       100127.07       100123.07
  0.00017234538       100119.06       100057.17       99992.974       100136.48       100117.65       100105.49       100111.86       100106.79       100109.39       100099.07       100130.55       100111.78       100116.69       100160.11       100125.72       100119.12        100126.8       100123.13
  0.00017902173       100119.08       100056.24       99997.059       100136.66       100116.52       100105.89       100113.82       100107.49        100109.9       100098.84       100130.38       100111.92       100116.75       100159.84       100125.86       100119.19       100126.44       100123.15
  0.00018572786       100119.11       100055.39       100001.41       100136.82       100115.13        100106.4       100115.89       100108.21       100110.47       100098.62       100130.23       100112.07       100116.82       100159.56       100126.03       100119.24       100126.08       100123.18
  0.00019246772       100119.11       100054.56       100005.85       100136.96       100113.51       100106.91       100117.73       100108.88       100111.05       100098.33       100130.01       100112.19       100116.85       100159.18       100126.21       100119.25       100125.64       100123.17
  0.00019924504       100119.14       100054.01        100010.3       100137.11       100111.66       100107.52       100119.56       100109.58       100111.66       100098.09       100129.84       100112.34       100116.92       100158.81       100126.41       100119.33        100125.3       100123.21
  0.00020606331       100119.16       100053.36       100014.86       100137.25       100109.55       100108.01       100121.36       100110.29       100112.28       100097.86       100129.65       100112.49       100116.98        100158.4       100126.65       100119.38       100124.82       100123.24
  0.00021292577       100119.17        100052.9       100019.65       100137.36       100107.22       100108.34       100122.82       100110.97       100112.91        100097.6       100129.46       100112.63       100117.04       100157.99       100126.85       100119.37       100124.33       100123.26
  0.00021983545       100119.17       100052.46        100024.7       100137.48       100104.77       100108.49        100124.5       100111.63       100113.58       100097.35       100129.26       100112.76        100117.1       100157.59       100127.09       100119.45       100123.82       100123.28
  0.00022679516       100119.13       100051.85       100030.02       100137.57        100102.3       100108.55       100125.92       100112.27       100114.24       100097.06       100129.03       100112.88       100117.13       100157.15       100127.31       100119.43       100123.22       100123.26
  0.00023380759       100119.11       100051.25       100035.56       100137.69       100099.91       100108.72       100127.15       100112.92       100114.85       100096.79       100128.82       100113.02        100117.2       100156.63        100127.6       100119.44       100122.66       100123.29
  0.00024087527       100119.05       100050.62       100041.17       100137.81       100097.55       100109.37       100128.04       100113.53       100115.46       100096.52       100128.58       100113.13       100117.21       100156.07       100127.86       100119.39       100122.02       100123.28
  0.00024800068       100118.99        100050.1       100046.78       100137.95       100095.19       100110.64       100128.59       100114.14       100116.11       100096.26       100128.35       100113.24       100117.25       100155.51       100128.12       100119.25       100121.41       100123.27
  0.00025514777       100119.03       100049.76       100052.41       100138.25       100092.88       100112.72       100128.73       100114.85        100116.9       100096.13       100128.23       100113.48       100117.41       100154.99       100128.52       100119.29       100120.85       100123.39
  0.00026214099       100118.86       100049.37       100057.58       100138.39       100090.33       100114.84       100128.27       100115.33       100117.42       100095.83       100127.92       100113.51       100117.36       100154.24       100128.68       100119.07       100120.09        100123.3
  0.00026900153       100118.71       100048.99       100062.51       100138.62       100087.76       100116.76       100127.55       100115.82       100117.97       100095.57       100127.64       100113.58       100117.36       100153.46        100128.9       100118.85       100119.38       100123.24
  0.00027577706        100118.6       100048.58       100067.21       100138.93       100085.17       100118.05       100126.63       100116.33       100118.52        100095.4       100127.41       100113.68       100117.41       100152.72       100129.17       100118.66       100118.74       100123.24
  0.00028251168       100118.49       100048.08       100071.65       100139.33       100082.54       100118.43       100125.62       100116.83       100119.07       100095.26       100127.21       100113.81       100117.47       100151.95       100129.45       100118.43       100118.08       100123.24
  0.00028924552       100118.38        100047.5       100075.81       100139.77       100079.88       100118.12        100124.7       100117.34       100119.61       100095.16       100127.02       100113.95       100117.54       100151.13       100129.74       100118.23       100117.46       100123.28
  0.00029601551       100118.25       100046.79       100079.65       100140.25       100077.21        100117.2       100123.96       100117.82       100120.08       100095.03       100126.83       100114.06        100117.6       100150.29       100130.01       100117.95       100116.85       100123.29
    0.000302817       100118.19       100046.14       100083.28       100140.82       100074.73       100116.04       100123.66       100118.37       100120.63       100094.99       100126.73       100114.28       100117.74       100149.48       100130.35       100117.71       100116.29        100123.4
  0.00030953916       100117.98       100045.36       100086.45       100141.26       100072.24       100114.58       100123.59       100118.74       100120.98       100094.88        100126.5       100114.33       100117.73       100148.45       100130.53       100117.32       100115.64       100123.34
  0.00031620381       100117.77        100044.6       100089.45       100141.75       100069.97        100113.1       100123.89       100119.11       100121.37       100094.74       100126.27       100114.41       100117.76       100147.44       100130.73       100116.95       100114.99       100123.32
  0.00032284317       100117.59       100043.88       100092.33       100142.21       100067.87       100111.88       100124.53       100119.48       100121.68       100094.63       100126.11        100114.5       100117.79       100146.44       100130.92       100116.63       100114.38       100123.32
  0.00032948604       100117.39       100043.17       100095.17       100142.63       100065.89       100111.07       100125.29       100119.83          100122       100094.57       100125.94       100114.59       100117.84       100145.34       100131.13       100116.15       100113.86       100123.33
  0.00033615782       100117.21       100042.52       100098.03       100143.08       100064.01       100110.65        100126.2       100120.18       100122.28       100094.51        100125.8       100114.69       100117.89       100144.24       100131.33       100115.77       100113.36       100123.35
  0.00034287896          100117       100041.91       100100.86       100143.51       100062.17        100110.6       100127.08       100120.51       100122.57       100094.46       100125.67       100114.78       100117.92       100143.04       100131.52       100115.28       100112.78       100123.36
  0.00034966337       100116.78       100041.34       100103.63       100143.91        100060.4       100110.83       100127.81        100120.8       100122.84       100094.43       100125.54       100114.87       100117.97       100141.84        100131.7       100114.79       100112.16       100123.37
  0.00035652757       100116.56       100040.79       100106.28       100144.26       100058.75       100111.09       100128.34       100121.12       100123.14       100094.41       100125.42       100114.96       100118.02       100140.58       100131.87       100114.28       100111.82       100123.39
  0.00036348495       100116.29       100040.22       100108.75       100144.58       100057.28       100111.37       100128.65       100121.37       100123.37       100094.36       100125.27       100115.01       100118.04       100139.23       100132.03       100113.71       100111.34       100123.38
   0.0003705448       100116.03       100039.56       100111.03       100144.87       100056.13       100111.59       100128.71       100121.63       100123.66       100094.36       100125.16       100115.09       100118.09       100137.84       100132.21       100113.18       100110.87       100123.41
  0.00037771194       100115.73       100038.77       100113.09       100145.11       100055.29       100111.67       100128.59       100121.87       100123.89       100094.35       100125.02       100115.14       100118.11        100136.4       100132.36        100112.6       100110.41        100123.4
  0.00038498655       100115.43       100037.86       100114.98       100145.32       100054.78       100111.72       100128.39       100122.13       100124.28       100094.35       100124.93       100115.22       100118.16       100134.95       100132.53       100111.87       100109.98       100123.42
  0.00039234986       100115.17       100036.97       100116.79        100145.5       100054.76       100111.79       100128.08       100122.46       100124.69       100094.44        100124.9       100115.36       100118.29       100133.59       100132.76       100111.39       100109.71       100123.51
  0.00039967218       100114.76       100036.01       100118.35       100145.39       100054.92       100111.89        100127.4       100122.64       100125.02        100094.4       100124.74       100115.37       100118.27       100132.13       100132.84       100110.64       100109.27       100123.46
  0.00040693655       100114.35       100035.35       100119.82       100145.18       100055.11       100112.18       100126.61       100122.83       100125.34       100094.39        100124.6        100115.4       100118.28       100130.67       100132.96       100109.88       100108.86       100123.45
  0.00041415553       100113.98       100035.08       100121.16       100144.94        100056.4       100112.62        100125.7       100123.08       100125.75       100094.48        100124.5       100115.48       100118.33        100129.3        100133.1       100109.17       100108.55       100123.47
  0.00042134132       100113.57       100035.21       100122.15       100144.61       100057.25       100113.07       100124.82        100123.3       100126.15       100094.53       100124.41       100115.55       100118.38       100127.93       100133.24       100108.52        100108.3        100123.5
  0.00042850479       100113.17       100035.73        100122.6       100144.33       100058.26       100113.51       100124.04       100123.56       100126.57       100094.61       100124.35       100115.64       100118.44        100126.5        100133.4        100107.8       100108.03       100123.52
   0.0004356552       100112.74       100036.52       100122.32        100144.1       100059.06       100113.87       100123.42       100123.77       100126.97       100094.68        100124.3       100115.72        100118.5       100125.03       100133.51       100107.01       100107.79       100123.54
  0.00044280044       100112.33       100037.52       100121.15       100143.91       100059.68        100114.2       100123.01       100124.02       100127.42       100094.77       100124.28       100115.81       100118.55        100123.6       100133.67       100106.28       100107.56       100123.59
  0.00044994695       100111.92       100038.62       100119.07        100143.7       100060.07       100114.46       100122.73       100124.27       100127.86       100094.88       100124.24       100115.92       100118.61       100122.12        100133.8       100105.51        100107.4       100123.62
  0.00045709948        100111.5       100039.78       100116.18       100143.48       100060.46       100114.64       100122.57        100124.5       100128.25       100094.98       100124.21       100116.01       100118.66       100120.68       100133.92       100104.85       100107.21       100123.65
  0.00046425732        100111.1       100040.97        100112.6       100143.23        100060.9       100114.73       100122.44       100124.71       100128.66       100095.09       100124.18       100116.12        100118.7       100119.32       100134.04       100104.21        100106.9       100123.68
   0.0004714203       100110.69       100042.21       100108.58       100142.88        100061.6       100114.66       100122.21       100124.92       100129.04       100095.19       100124.15       100116.21       100118.72       100118.13       100134.16       100103.53       100106.67       100123.69
  0.00047858808       100110.33       100043.48       100104.16       100142.55       100062.73       100114.45       100121.86       100125.13       100129.36       100095.31       100124.14       100116.33       100118.78       100117.19       100134.29       100102.74       100106.46       100123.72
  0.00048575849          100110       100044.81       100099.52       100142.16       100064.27       100114.08       100121.36       100125.34       100129.75       100095.46       100124.14       100116.45       100118.84       100116.48       100134.42       100102.03       100106.27       100123.75
  0.00049292777       100109.69       100046.16       100094.86       100141.59       100066.18       100113.57       100120.74       100125.54       100130.12       100095.62       100124.13       100116.59       100118.87       100115.97       100134.55       100101.37       100106.06       100123.77
  0.00050009088       100109.41       100047.57       100090.49        100141.1       100068.35        100112.9       100120.07       100125.73       100130.39       100095.76       100124.14       100116.72       100118.93       100115.64       100134.68       100100.72       100105.85       100123.81
  0.00050724173       100109.13       100049.02       100087.11       100140.51       100070.62       100112.09       100119.42       100125.89       100130.64       100095.88       100124.12       100116.83       100118.93        100115.4       100134.79       100099.96        100105.6        100123.8
  0.00051437387       100108.92       100050.52       100085.46       100139.99       100072.94        100111.2       100118.89       100126.09       100130.93       100096.05       100124.17       100116.99          100119       100115.25       100134.92       100099.31       100105.46       100123.84
  0.00052148101       100108.74       100052.03       100086.22       100139.49       100075.01       100110.18       100118.46       100126.26       100131.17        100096.2       100124.17       100117.13       100119.05        100115.1       100135.06       100098.74       100105.24       100123.87
  0.00052855771       100108.56       100053.51       100090.05       100139.01       100076.68       100109.01       100118.17       100126.41       100131.37       100096.31       100124.17       100117.25       100119.08       100114.92       100135.18       100098.17       100105.03       100123.87
  0.00053559991       100108.45       100055.01        100096.5        100138.6        100077.9       100107.76       100118.04       100126.56       100131.59       100096.46       100124.17       100117.39       100119.12       100114.74        100135.3       100097.59       100104.83       100123.89
  0.00054260542       100108.34       100056.47       100103.86       100138.24       100078.59       100106.35       100118.06       100126.71       100131.74       100096.58       100124.13       100117.51       100119.15       100114.45       100135.41       100097.07       100104.64        100123.9
  0.00054957419       100108.29       100058.01       100110.52       100137.97       100078.91       100104.85        100118.2       100126.85       100131.94       100096.72       100124.11       100117.64        100119.2       100114.02       100135.53        100096.6       100104.42       100123.91
  0.00055650834       100108.26       100059.51       100115.37       100137.78       100079.01       100103.25       100118.44       100126.99       100132.14       100096.84       100124.09       100117.77       100119.24       100113.44       100135.65       100096.23       100104.24       100123.93
  0.00056341215       100108.25       100061.13       100117.73       100137.61       100079.15       100101.58       100118.72       100127.13       100132.44       100096.96       100124.06        100117.9       100119.29       100112.62       100135.75       100095.88       100104.06       100123.93
  0.00057029183       100108.28       100062.79        100118.2        100137.4       100079.41       100099.85          100119       100127.26       100132.64       100097.08       100124.02       100118.03       100119.32       100111.54       100135.86       100095.62       100103.89       100123.95
  0.00057715533       100108.34       100064.47       100118.07       100137.19       100079.91       100098.07       100119.38       100127.39       100132.95        100097.2       100124.03       100118.15       100119.39       100110.19       100135.96       100095.44       100103.73       100123.97
  0.00058401208       100108.41       100066.08       100118.46       100136.88       100080.73       100096.29       100119.61        100127.5       100132.97       100097.29       100124.01       100118.26       100119.45       100108.53       100136.06       100095.37       100103.59       100123.98
  0.00059087277       100108.51       100067.53       100119.79       100136.63       100081.93       100094.52       100119.79       100127.62       100133.09       100097.39          100124       100118.39       100119.51        100106.6       100136.16        100095.5       100103.47       100124.01
  0.00059774921       100108.59       100068.68        100121.6       100136.48       100083.37       100092.77       100119.95       100127.72       100133.24       100097.44       100123.93       100118.48       100119.52       100104.38       100136.24       100095.76       100103.32          100124
   0.0006046542       100108.71       100069.47       100123.07       100136.46       100084.99        100091.1        100120.1       100127.82       100133.28        100097.5       100123.93       100118.59        100119.6       100101.99       100136.33       100095.95       100103.23       100124.01
  0.00061159983       100108.84       100069.59       100123.95       100136.81       100086.65       100089.55       100120.17       100127.95       100133.33       100097.58       100123.91       100118.72       100119.68       100099.45       100136.43       100096.78       100103.11       100124.05
  0.00061851733       100108.94       100069.31        100124.1       100137.44       100088.12       100088.05       100120.14       100128.03       100133.34       100097.62       100123.86       100118.79       100119.72       100096.77       100136.51       100096.78          100103       100124.04
   0.0006253663       100109.03       100068.54       100123.96       100138.22       100089.37       100086.65       100120.05       100128.09       100133.44       100097.62       100123.79       100118.86       100119.74       100094.06       100136.56       100097.24       100102.92       100124.01
  0.00063214892       100109.11        100067.5       100123.74       100139.35       100090.48       100085.33       100119.95       100128.17       100133.44       100097.62       100123.72       100118.93       100119.77       100091.41       100136.61       100097.67       100102.93          100124
  0.00063886772        100109.2       100066.41       100123.52       100140.54       100091.54       100084.09        100119.8       100128.25       100133.29       100097.63       100123.66          100119       100119.81       100088.93       100136.68       100098.46       100102.86          100124
   0.0006455256       100109.31       100065.62       100123.21        100141.6       100092.62       100082.91       100119.73       100128.34        100133.3       100097.66       100123.64       100119.09       100119.86       100086.73       100136.74       100098.65       100102.88       100124.01