# Probe 0 (0 0.005 0)
# Probe 1 (-0.01 -0.005 0)
# Probe 2 (0.01 -0.005 0)
# Probe 3 (0 -0.005 0.01)
# Probe 4 (0 -0.005 -0.01)
# Probe 5 (-0.01 0.005 0)
# Probe 6 (0.01 0.005 0)
# Probe 7 (0 0.005 0.01)
# Probe 8 (0 0.005 -0.01)
# Probe 9 (-0.005 0.005 0)
# Probe 10 (0.005 0.005 0)
# Probe 11 (0 0.005 0.005)
# Probe 12 (0 0.005 -0.005)
# Probe 13 (-0.01 0.015 0)
# Probe 14 (0.01 0.015 0)
# Probe 15 (0 0.015 0.01)
# Probe 16 (0 0.015 -0.01)
# Probe 17 (0 0.015 0)
#         Probe               0               1               2               3               4               5               6               7               8               9              10              11              12              13              14              15              16              17
#          Time
  6.2579274e-06       100144.39       100076.49       100094.97       100160.03       100160.59       100135.02       100151.55       100115.16          100125       100127.77       100158.57       100133.41       100140.36       100179.24        100152.9       100142.16       100153.23       100148.52
  1.2541223e-05       100138.03       100076.08       100085.07       100153.38        100153.9        100128.8       100143.05       100109.51       100119.21       100121.36       100152.36       100127.32       100134.26       100174.09       100146.86       100136.29       100147.38       100142.35
  1.8820154e-05       100138.52       100082.59        100081.7        100153.6       100153.97       100129.29       100141.58       100110.63       100120.14       100121.79       100152.86       100128.03        100134.9       100175.54       100147.55       100137.06       100148.25       100142.97
  2.5097988e-05       100139.74       100089.21       100078.74       100154.53       100154.72        100130.4       100141.03        100112.5       100121.71       100122.91       100154.08       100129.45       100136.22       100177.56       100148.91       100138.52       100149.78       100144.28
  3.1378797e-05       100140.97       100095.31       100075.57       100155.54       100155.39       100131.48       100140.63       100114.37       100123.29       100124.06       100155.26       100130.87       100137.57       100179.55       100150.22       100139.93       100151.24       100145.58
  3.7667264e-05       100142.04       100099.56       100072.08       100156.46       100155.87       100132.34       100140.13       100116.09       100124.75       100125.06       100156.29       100132.12       100138.71       100181.31       100151.34        100141.2       100152.54       100146.73
  4.3965785e-05          100143       100102.29       100068.33       100157.38       100156.12       100133.06       100139.43       100117.73       100126.06       100125.96       100157.19       100133.25       100139.76       100182.89       100152.28       100142.24       100153.66       100147.73
  5.0277041e-05       100143.82       100103.76       100064.28       100158.24       100156.18       100133.57       100138.54       100119.23       100127.23       100126.68       100157.95       100134.23       100140.66       100184.25       100153.04       100143.16       100154.62       100148.59
  5.6606551e-05       100144.51        100104.8       100059.84       100159.11       100156.08       100133.94        100137.5       100120.62        100128.3       100127.29       100158.58        100135.1       100141.42       100185.55       100153.66       100143.97       100155.47       100149.35
  6.2960152e-05       100145.16       100104.36       100055.09       100159.97       100155.87       100134.25       100136.38       100121.99       100129.29       100127.86       100159.14       100135.92       100142.13       100186.57       100154.19       100144.69        100156.2       100150.03
  6.9343799e-05       100145.72       100104.59       100049.93       100160.78       100155.56       100134.45       100135.18       100123.29       100130.23       100128.33       100159.62       100136.65       100142.75       100187.55       100154.62       100145.35       100156.86       100150.64
  7.5763348e-05       100146.24       100104.98       100044.46        100161.5       100155.17       100134.61       100133.94       100124.54       100131.08       100128.74       100160.05       100137.34       100143.32        100188.5       100154.98       100145.94       100157.46       100151.19
  8.2224334e-05        100146.7       100104.86       100038.93       100162.13       100154.71       100134.71       100132.67       100125.75       100131.91       100129.09        100160.4       100137.97       100143.85       100189.31       100155.28       100146.52       100157.94       100151.68
  8.8731705e-05       100147.13       100103.99        100033.4       100162.68       100154.23       100134.82        100131.5       100126.92       100132.69        100129.4       100160.75       100138.57       100144.33       100189.88       100155.56       100147.04       100158.38       100152.15
   9.528963e-05       100147.51       100102.36       100027.96       100163.13       100153.65       100134.93       100130.49       100128.04       100133.43       100129.66       100161.02       100139.12       100144.75       100190.61       100155.78       100147.49       100158.75       100152.57
  0.00010190134       100147.86       100100.09       100022.87       100163.51       100153.06       100135.01       100129.71       100129.17       100134.14       100129.86       100161.24       100139.63       100145.14       100191.19          100156       100147.92       100159.01       100152.95
  0.00010856906       100148.17       100097.77       100018.47       100163.84       100152.37        100135.1       100129.37       100130.26        100134.8       100130.01       100161.43       100140.11        100145.5       100191.43        100156.2       100148.34       100159.23       100153.29
  0.00011529413       100148.46       100095.68       100014.45       100164.15       100151.69       100135.18       100129.48       100131.32       100135.48       100130.13       100161.58       100140.57       100145.83       100191.57        100156.4       100148.71       100159.39        100153.6
  0.00012207707       100148.69       100093.98       100011.17       100164.44        100150.9       100135.21       100130.07       100132.31       100136.09       100130.19       100161.68       100140.97        100146.1       100192.09       100156.58       100149.02       100159.47       100153.87
  0.00012891791       100148.89        100092.6        100009.5       100164.77       100150.16       100135.21       100131.15       100133.28       100136.68       100130.21       100161.72       100141.33       100146.34       100192.27       100156.73       100149.27        100159.5       100154.09
  0.00013581642        100149.1       100091.38       100009.06       100165.15        100149.4       100135.19       100132.73       100134.26        100137.3        100130.2       100161.77       100141.69       100146.58       100192.29       100156.93        100149.6        100159.5       100154.31
  0.00014277241       100149.25       100090.18       100009.75       100165.51       100148.71       100135.15       100134.64       100135.16       100137.91       100130.14       100161.75          100142       100146.78        100192.3       100157.08       100149.83       100159.42       100154.48
  0.00014978429       100149.43        100089.1       100011.58       100165.91       100147.95       100135.13       100136.87        100136.1       100138.54       100130.07       100161.75       100142.33       100146.97       100192.33       100157.29       100150.05       100159.33       100154.67
  0.00015682052       100149.55       100087.94        100014.1       100166.23          100147       100135.16       100139.29       100136.96       100139.14       100129.94       100161.68       100142.59       100147.11       100192.13       100157.48       100150.23       100159.11       100154.79
  0.00016387225       100149.64       100086.87       100017.52       100166.52       100145.83       100135.29       100141.67        100137.8       100139.76       100129.78       100161.59       100142.83       100147.22       100191.95       100157.67       100150.38       100158.86       100154.88
    0.000170944       100149.74       100085.91       100021.53        100166.8       100144.37       100135.54       100144.16       100138.64       100140.39        100129.6       100161.49       100143.07       100147.34       100191.63        100157.9       100150.48       100158.56       100154.98
  0.00017804067       100149.83       100085.06       100025.81       100167.07       100142.61       100135.94       100146.52       100139.44       100141.04       100129.42       100161.36       100143.29       100147.44       100191.43       100158.13       100150.61       100158.26       100155.05
  0.00018516726        100149.9       100084.37       100030.24       100167.34       100140.62       100136.47       100148.93       100140.24       100141.72       100129.19       100161.22        100143.5       100147.53       100191.14       100158.37       100150.72       100157.91       100155.11
  0.00019232877       100149.95       100083.83       100034.74        100167.6       100138.44       100137.07       100150.91       100141.03       100142.38       100128.97       100161.05        100143.7        100147.6       100190.73       100158.61       100150.79       100157.45       100155.16
  0.00019953004       100150.01       100083.36       100039.31       100167.88       100136.04       100137.66       100153.01       100141.78        100143.1       100128.77       100160.89       100143.89       100147.67       100190.34       100158.88       100150.85       100156.96       100155.21
  0.00020677568       100150.03       100082.92       100044.13       100168.11        100133.4        100138.1       100154.87       100142.48        100143.8       100128.49        100160.7       100144.03       100147.71       100189.89       100159.11       100150.89       100156.55       100155.22
  0.00021407014       100150.06       100082.43       100049.33       100168.39       100130.66       100138.44       100156.62       100143.22       100144.51       100128.28        100160.5       100144.21       100147.77       100189.47       100159.38       100150.92       100156.06       100155.26
  0.00022141766       100150.09       100081.88       100054.91       100168.68       100127.87       100138.56       100158.31       100143.89       100145.24       100128.03       100160.32       100144.37       100147.82       100189.02       100159.66        100150.9       100155.46       100155.29
  0.00022882228       100150.08       100081.24       100060.72       100168.95       100125.01       100138.67       100159.63       100144.56       100145.92        100127.8       100160.08       100144.52       100147.85       100188.45       100159.93       100150.88       100154.85       100155.28
  0.00023628796       100150.08       100080.66       100066.74       100169.26       100122.09       100139.14       100160.73       100145.22       100146.65       100127.59       100159.88       100144.67       100147.91       100187.91       100160.25       100150.86       100154.21        100155.3
  0.00024381855       100150.06        100080.2       100072.88       100169.57       100119.03       100140.16       100161.27       100145.85       100147.37       100127.46       100159.68       100144.82       100147.94       100187.33       100160.55       100150.82       100153.56       100155.31
  0.00025128354       100150.14       100079.86       100079.04       100170.02       100115.97       100142.05       100161.44       100146.58       100148.16       100127.34       100159.57       100145.08       100148.08        100186.8       100160.96       100150.87       100152.99       100155.42
   0.0002585525       100150.01       100079.31       100084.77       100170.34       100112.69       100144.06       100160.97       100147.05       100148.67       100127.12       100159.26       100145.12       100148.03       100185.99       100161.16       100150.65       100152.21       100155.32
  0.00026567861       100149.92       100078.65        100090.3       100170.74       100109.46       100146.22       100160.28       100147.57       100149.25       100126.95       100159.02       100145.22       100148.02       100185.25       100161.42       100150.48       100151.48       100155.29
  0.00027271386        100149.9       100077.87       100095.64       100171.27       100106.34        100147.8       100159.43       100148.12       100149.89       100126.86       100158.86       100145.39        100148.1       100184.51       100161.75       100150.35        100150.8       100155.32
  0.00027970706       100149.86       100076.92       100100.72       100171.84        100103.3       100148.58       100158.56       100148.64       100150.44        100126.8        100158.7       100145.55       100148.16       100183.74       100162.06       100150.17       100150.19       100155.35
  0.00028668372       100149.95       100076.07       100105.67        100172.6       100100.54       100148.79       100158.02        100149.3       100151.11        100126.9       100158.69       100145.86       100148.37       100183.09       100162.51       100150.16        100149.7       100155.53
  0.00029353263       100149.82       100075.03          100110       100173.18       100097.81       100148.14       100157.55       100149.72       100151.55       100126.77        100158.5       100145.95       100148.37       100182.19       100162.74       100149.83       100149.02        100155.5
  0.00030026284       100149.72       100074.07       100113.94       100173.78       100095.38        100147.2       100157.42       100150.14       100151.98       100126.71       100158.36       100146.07       100148.41       100181.28       100162.99       100149.57       100148.37       100155.51
  0.00030691374       100149.64       100073.22       100117.51       100174.43       100093.14       100146.02       100157.55       100150.59       100152.35       100126.71       100158.25       100146.23       100148.46        100180.4       100163.26       100149.26       100147.83       100155.55
  0.00031352129       100149.55        100072.4       100120.76       100175.02          100091       100144.86       100157.96       100151.02       100152.72       100126.71       100158.17       100146.38       100148.53        100179.5       100163.53       100148.97       100147.24       100155.59
  0.00032011918       100149.47       100071.61       100123.78       100175.62       100088.93       100143.79       100158.51       100151.44       100153.07       100126.74       100158.11       100146.54       100148.62       100178.57       100163.79       100148.64       100146.73       100155.65
  0.00032673808       100149.41        100070.8       100126.67       100176.07       100086.97       100143.15       100159.21       100151.86       100153.35        100126.8       100158.08       100146.72       100148.71       100177.58       100164.07       100148.34       100146.24       100155.73
  0.00033340064       100149.31       100069.93       100129.49       100176.46       100085.13       100142.91       100159.93       100152.25       100153.75       100126.83       100158.04       100146.87       100148.79       100176.54       100164.32       100147.95       100145.75       100155.79
  0.00034012699       100149.18       100068.96       100132.29       100176.71        100083.6       100143.02       100160.59       100152.61       100154.02       100126.87          100158          100147       100148.85       100175.41       100164.54        100147.5       100145.16       100155.83
  0.00034694081       100149.05       100067.93       100135.11       100176.89       100082.38       100143.36       100161.13       100152.96       100154.29       100126.92       100157.97       100147.14       100148.91       100174.25       100164.75       100147.11       100144.77       100155.87
  0.00035386304       100148.93       100066.77       100137.94       100177.06       100081.68       100143.88       100161.57       100153.32       100154.57       100126.99       100157.97        100147.3       100148.99       100173.03          100165       100146.64       100144.31       100155.94
  0.00036091122       100148.76       100065.54       100140.65       100177.17       100081.33       100144.37       100161.79       100153.62       100154.84       100127.01       100157.95       100147.41       100149.03        100171.7       100165.21       100146.09        100143.9       100155.98
  0.00036809858       100148.61       100064.37       100143.18       100177.26       100081.59       100144.77       100161.86       100153.95       100155.14       100127.09       100157.94       100147.55        100149.1       100170.33       100165.43       100145.54       100143.46       100156.02
  0.00037542639       100148.54       100063.55        100145.5       100177.41       100082.39       100145.18       100161.95       100154.36       100155.57       100127.26       100158.06       100147.78       100149.26       100169.02       100165.71       100145.04       100143.13       100156.17
  0.00038275028       100148.29       100062.93        100147.2       100177.26       100083.01       100145.08       100161.72       100154.59       100155.83       100127.27       100158.01       100147.84       100149.26       100167.53       100165.86       100144.32       100142.68       100156.15
  0.00039002238       100148.03       100062.81        100148.4       100176.98       100083.89       100144.99       100161.33       100154.81       100156.15       100127.28       100157.95        100147.9       100149.25        100166.1       100165.98       100143.57       100142.24       100156.13
  0.00039725792       100147.78       100063.16       100149.13        100176.5        100084.7       100144.98       100160.75       100155.04       100156.48       100127.33       100157.92       100147.99       100149.29       100164.68       100166.14        100142.9       100141.86       100156.14
  0.00040446955       100147.54       100063.86       100149.35       100175.76       100085.55       100145.14       100159.98        100155.3       100156.86        100127.4       100157.91        100148.1       100149.34       100163.31       100166.29       100142.29       100141.51       100156.17
  0.00041166761        100147.3       100064.83       100148.92       100174.77       100086.66       100145.36          100159       100155.58       100157.31       100127.52       100157.92       100148.22        100149.4       100161.97       100166.47       100141.59       100141.17       100156.22
  0.00041886028       100147.01       100065.86       100147.63       100173.61       100088.07       100145.56       100157.82       100155.82       100157.72       100127.58        100157.9       100148.32       100149.44       100160.59       100166.62       100140.85       100140.91       100156.25
   0.0004260539       100146.73       100066.96       100145.39       100172.27       100089.91       100145.66       100156.59       100156.08       100158.15       100127.71       100157.91       100148.45       100149.51       100159.19       100166.79       100140.08       100140.63       100156.31
  0.00043325306        100146.4       100068.03       100142.11       100170.84       100092.06        100145.6       100155.45       100156.32       100158.56       100127.79       100157.89       100148.55       100149.55       100157.74       100166.92       100139.35       100140.36       100156.33
  0.00044046084       100146.07       100069.13       100137.94       100169.03       100094.51       100145.36       100154.54       100156.56       100159.04       100127.89       100157.88       100148.67       100149.61       100156.24       100167.08       100138.63       100140.14       100156.38
  0.00044767841       100145.72       100070.23        100133.1       100166.91       100097.09       100144.96       100153.93       100156.79       100159.54       100127.99       100157.85       100148.78       100149.67       100154.73       100167.23       100137.83        100139.9       100156.42
  0.00045490226       100145.35       100071.34       100128.09       100164.41        100099.6       100144.48       100153.59       100157.04       100159.92       100128.07       100157.83       100148.89       100149.71       100153.26       100167.37       100137.09        100139.6       100156.46
  0.00046212974       100144.96       100072.47       100123.53       100161.77       100101.94       100143.94       100153.36       100157.24       100160.38       100128.16       100157.76          100149       100149.74       100151.91        100167.5       100136.38       100139.36       100156.49
   0.0004693575       100144.58       100073.62       100120.43       100159.17       100103.82       100143.34       100153.15       100157.45       100160.78       100128.25       100157.78       100149.11       100149.79        100150.7       100167.63       100135.68        100139.1        100156.5
   0.0004765812       100144.21       100074.86       100119.89       100157.26       100105.46       100142.66       100152.84       100157.66        100161.2       100128.34       100157.77       100149.24       100149.84       100149.73       100167.74       100134.82       100138.85       100156.52
  0.00048379568       100143.84       100076.11       100121.98       100156.29       100106.74       100141.92        100152.4       100157.85       100161.56       100128.43       100157.74       100149.35       100149.86       100148.99       100167.87       100134.02       100138.57       100156.53
  0.00049099529       100143.51        100077.4       100126.54       100156.19       100107.61       100141.05       100151.87       100158.05       100161.87       100128.52       100157.74       100149.48       100149.92        100148.5          100168       100133.29       100138.32       100156.55
  0.00049817422       100143.19       100078.66       100132.99       100156.68       100108.21       100140.11       100151.26       100158.24        100162.2       100128.58       100157.73       100149.62       100149.96       100148.23       100168.13        100132.6       100138.12       100156.57
    0.000505327        100142.9       100079.98       100140.37       100157.47       100108.59        100139.1       100150.63       100158.45       100162.52       100128.67       100157.71       100149.76       100150.02       100148.06       100168.29        100131.8       100137.91       100156.61
    0.000512449       100142.63       100081.18       100146.94       100158.47       100108.91       100137.99       100150.05       100158.63       100162.84       100128.73       100157.69        100149.9       100150.06       100147.92       100168.43       100131.16       100137.67       100156.63
  0.00051953687       100142.36       100082.24       100151.43       100159.66       100109.39       100136.79       100149.51       100158.79       100163.02       100128.78       100157.67       100150.03        100150.1       100147.77       100168.55       100130.48       100137.46       100156.64
  0.00052658894       100142.12       100083.13       100153.59       100161.05       100110.12       100135.54       100149.15       100158.95       100163.24       100128.81       100157.61       100150.16       100150.13       100147.57       100168.67       100129.91       100137.24       100156.65
  0.00053360539       100141.92       100083.85       100154.15       100162.58       100111.19       100134.18       100149.01       100159.11       100163.48       100128.89       100157.59       100150.29       100150.18       100147.35        100168.8       100129.34       100137.03       100156.67
  0.00054058754       100141.73       100084.38       100153.95       100164.25       100112.57       100132.75       100149.07       100159.27        100163.8       100128.92       100157.55       100150.42       100150.22       100146.98       100168.92       100128.91       100136.83       100156.69
  0.00054753921       100141.58       100084.73        100153.7       100165.99       100114.13       100131.24       100149.32       100159.44        100163.9       100128.97       100157.53       100150.56       100150.27       100146.44       100169.05       100128.51       100136.63        100156.7
  0.00055446657       100141.45       100084.97       100153.77       100167.78       100115.69       100129.62       100149.72       100159.61       100164.15       100129.02       100157.49        100150.7       100150.33       100145.71       100169.17       100128.14       100136.51       100156.73
  0.00056137763       100141.34       100085.16       100154.15       100169.48       100117.08       100127.94        100150.2       100159.76       100164.15       100129.04       100157.43       100150.83       100150.38       100144.68       100169.28       100127.59       100136.32       100156.74
  0.00056828218       100141.27       100085.31       100154.64        100171.1        100118.2        100126.1       100150.73       100159.93        100164.3       100129.07       100157.39       100150.97       100150.44       100143.42        100169.4       100127.45       100136.17       100156.77
   0.0005751916       100141.21       100085.49       100154.93       100172.52          100119       100124.19       100151.17        100160.1       100164.34       100129.09       100157.35       100151.09        100150.5       100141.83        100169.5        100127.4       100136.01       100156.79
  0.00058211842       100141.17       100085.72       100155.02        100173.8       100119.62       100122.15       100151.53       100160.25       100164.41       100129.11       100157.31       100151.22       100150.56       100139.96       100169.62        100127.4       100135.92       100156.81
  0.00058907639       100141.16       100086.07       100155.16       100174.96       100120.27       100120.02       100151.77       100160.43        100164.1       100129.13       100157.27       100151.35       100150.61       100137.86       100169.72       100127.62       100135.78       100156.83
  0.00059608038       100141.15       100086.24       100155.38       100175.94       100121.12        100117.8       100151.93       100160.57       100163.99        100129.1       100157.21       100151.45       100150.66        100135.5       100169.82       100127.66       100135.62       100156.84
  0.00060310328       100141.22       100086.51       100155.67       100176.91        100122.3       100115.58       100152.15       100160.78       100163.72       100129.16       100157.24       100151.62       100150.78       100133.03       100169.97       100127.93       100135.62       100156.91
  0.00061007573       100141.21       100086.68        100155.7       100177.69       100123.58       100113.27       100152.18        100160.9       100163.41       100129.11       100157.16       100151.68        100150.8       100130.35       100170.02       100128.23       100135.45       100156.87
  0.00061700268       100141.23       100086.96       100155.52        100178.4        100124.9       100110.93        100152.2       100161.03       100163.06       100129.07       100157.11       100151.76       100150.81       100127.59       100170.05       100128.65       100135.43       100156.85
  0.00062389235       100141.28       100087.43        100155.1       100178.94       100126.17       100108.67       100152.19       100161.17       100162.77       100129.06       100157.06       100151.86       100150.87       100124.83       100170.12       100128.88        100135.4       100156.84
  0.00063075431       100141.34       100088.08       100154.52       100179.19       100127.42        100106.4       100152.19       100161.32        100162.7       100129.05       100157.01       100151.95       100150.92       100122.16       100170.19       100129.29       100135.41       100156.84
  0.00063759916       100141.41       100088.96       100153.74        100179.1       100128.67       100104.17       100152.17       100161.46       100162.51       100129.04       100156.96       100152.05       100150.97       100119.66       100170.25       100129.71       100135.45       100156.84
  0.00064443837        100141.5       100089.89        100152.9       100178.47       100129.99       100101.98       100152.13       100161.62       100162.36       100129.07       100156.94       100152.16       100151.02       100117.54       100170.33       100130.17       100135.52       100156.85
  0.00065128406       100141.56       100090.92       100151.91       100177.49       100131.39       100099.82       100152.03       100161.75       100162.15       100129.05       100156.87       100152.25       100151.08       100115.92       100170.39       100130.46       100135.64       100156.85
  0.00065814894       100141.63          100092       100150.88       100176.29       100132.95        100097.7       100151.96       100161.89       100162.01       100129.07       100156.82       100152.34       100151.15       100114.92       100170.47       100130.92        100135.8       100156.86
  0.00066504072       100141.74        100093.2       100149.81       100174.99       100134.69       100095.72       100151.92       100162.08       100161.88       100129.13        100156.8       100152.49       100151.24       100114.52       100170.59       100131.47       100135.98       100156.91