# Probe 0 (0 0.005 0)
# Probe 1 (-0.01 -0.005 0)
# Probe 2 (0.01 -0.005 0)
# Probe 3 (0 -0.005 0.01)
# Probe 4 (0 -0.005 -0.01)
# Probe 5 (-0.01 0.005 0)
# Probe 6 (0.01 0.005 0)
# Probe 7 (0 0.005 0.01)
# Probe 8 (0 0.005 -0.01)
# Probe 9 (-0.005 0.005 0)
# Probe 10 (0.005 0.005 0)
# Probe 11 (0 0.005 0.005)
# Probe 12 (0 0.005 -0.005)
# Probe 13 (-0.01 0.015 0)
# Probe 14 (0.01 0.015 0)
# Probe 15 (0 0.015 0.01)
# Probe 16 (0 0.015 -0.01)
# Probe 17 (0 0.015 0)
#         Probe               0               1               2               3               4               5               6               7               8               9              10              11              12              13              14              15              16              17
#          Time
  6.2579274e-06               (0.37605686 -1.7434819 1.7270753)               (5.9509942 18.524791 -7.2216251)               (-7.6045078 6.9232987 11.221223)               (-8.8087269 2.2441866 1.9122287)               (5.7213565 7.4139618 0.16134719)               (1.9250603 7.4195486 -9.3860168)               (-2.9211295 12.024362 11.806304)               (-3.2329962 -2.5026378 4.4038887)               (0.99464187 1.677098 -3.6309575)               (3.1190154 -1.6976735 0.6438973)               (-1.3290246 -1.9616378 3.3158786)               (-3.3741314 -4.1736904 1.897484)               (0.68670184 1.4030903 -0.50722001)               (-1.6493487 -2.1550999 -5.4050175)               (2.1386939 3.0322003 3.1184204)               (0.10073647 0.94413685 3.5419889)               (1.6389173 3.5139224 -2.0039435)               (3.6294786 -3.4447402 0.63145563)
  1.2541223e-05               (0.34507306 -1.7059584 1.7406605)               (6.4818581 17.846084 -6.7824645)               (-7.7907491 7.2557895 11.271215)               (-8.7352533 2.537391 2.0460036)               (5.4905452 7.3735953 0.28015799)               (1.8317406 7.2168123 -9.359708)               (-2.7878501 11.967692 11.767041)               (-3.246695 -2.4937698 4.4694803)               (1.0073832 1.6931993 -3.6939879)               (3.1326688 -1.7222111 0.68630004)               (-1.3410714 -1.9520125 3.3100014)               (-3.3557219 -4.1868822 1.9000186)               (0.67328157 1.4091654 -0.47676282)               (-1.6131836 -2.0677693 -5.4480598)               (2.2365342 3.0662 3.2377394)               (0.13763123 0.96464592 3.5548401)               (1.6984481 3.5483161 -1.9855415)               (3.632773 -3.3935001 0.63761634)
  1.8820154e-05               (0.31409902 -1.6688434 1.7545746)               (6.5782832 17.328525 -6.3683095)               (-7.9207702 7.6112679 11.305704)               (-8.7056921 2.8055027 2.0074471)               (5.2651492 7.3100677 0.40268033)               (1.7346278 7.0483776 -9.2838416)               (-2.6504675 11.720108 11.788448)               (-3.2662734 -2.4827189 4.5310968)               (1.0249001 1.7078119 -3.7594025)               (3.1466005 -1.7436326 0.72812796)               (-1.3539823 -1.9429937 3.3039812)               (-3.3369086 -4.2011756 1.8974081)               (0.65882745 1.4164681 -0.44634273)               (-1.5733832 -1.9716254 -5.4956147)               (2.3377925 3.0941423 3.3624898)               (0.17302614 0.98254821 3.5676378)               (1.7565618 3.5856559 -1.9640787)               (3.635809 -3.3408275 0.64350835)
  2.5097988e-05               (0.28320543 -1.6320551 1.7689303)               (5.8358759 17.064899 -5.8847034)               (-8.0160652 7.9937619 11.317524)               (-8.7216797 3.0484047 1.7994344)               (5.047998 7.2255269 0.52684527)               (1.6411186 6.9226292 -9.147024)               (-2.5676063 11.387613 11.853888)               (-3.2915915 -2.4696495 4.5886051)               (1.0476957 1.7208993 -3.8272966)               (3.160061 -1.762268 0.76908417)               (-1.3677495 -1.9345342 3.2978788)               (-3.3178605 -4.215824 1.890535)               (0.64341423 1.4251151 -0.41576989)               (-1.5296121 -1.8655281 -5.5461946)               (2.4413189 3.1154384 3.4913785)               (0.20451925 0.99753104 3.5799856)               (1.8130703 3.6260119 -1.9394875)               (3.6385795 -3.2867321 0.64916946)
  3.1378797e-05               (0.25247092 -1.5955348 1.7838499)               (4.5675013 16.918618 -5.3254671)               (-8.1207271 8.3748904 11.311749)               (-8.770417 3.2861743 1.4753448)               (4.840638 7.1257784 0.64937305)               (1.5581558 6.8455787 -8.9447469)               (-2.5604632 11.063602 11.929985)               (-3.3226443 -2.454574 4.6420206)               (1.0759199 1.732286 -3.8976027)               (3.1730966 -1.7780511 0.80908019)               (-1.3823882 -1.9266573 3.2917477)               (-3.298725 -4.2301115 1.8802161)               (0.62787738 1.4352046 -0.38531097)               (-1.4819477 -1.7490133 -5.5992546)               (2.5461737 3.1293695 3.6228624)               (0.23340834 1.0100911 3.5918973)               (1.8676949 3.6694768 -1.9117153)               (3.6410645 -3.2312114 0.65464386)
  3.7667264e-05               (0.22197916 -1.559237 1.7994442)               (3.4481425 16.657388 -4.7891366)               (-8.25785 8.71422 11.313009)               (-8.822442 3.563627 1.1241248)               (4.643274 7.0196718 0.76680135)               (1.4917872 6.8189176 -8.679657)               (-2.6080351 10.799535 11.977472)               (-3.3593575 -2.4375468 4.6913758)               (1.1099823 1.74195 -3.9701738)               (3.1857697 -1.7910076 0.84771131)               (-1.3978732 -1.9193676 3.2855831)               (-3.279643 -4.2433777 1.8671814)               (0.61155529 1.4467285 -0.35455856)               (-1.4303099 -1.6212126 -5.6547846)               (2.6517429 3.1350743 3.7552211)               (0.2600324 1.0199947 3.6034541)               (1.9203093 3.7161618 -1.8806284)               (3.6432348 -3.1742619 0.65996939)
  4.3965785e-05               (0.19182265 -1.5231466 1.8158308)               (2.9893 16.146338 -4.4155024)               (-8.3974756 9.0032697 11.350307)               (-8.8416562 3.9329005 0.83306427)               (4.456039 6.9174894 0.87679308)               (1.4470613 6.8393266 -8.360239)               (-2.6637506 10.604494 11.961696)               (-3.4014203 -2.4186376 4.7366472)               (1.1500727 1.7498005 -4.0446517)               (3.1976879 -1.8011022 0.88495231)               (-1.414182 -1.9126814 3.2793985)               (-3.2607393 -4.2550401 1.8520792)               (0.59466584 1.4594514 -0.32370919)               (-1.3750223 -1.4817726 -5.7122147)               (2.7576483 3.1315668 3.8866249)               (0.28463412 1.0271959 3.6147016)               (1.9708533 3.7659674 -1.8462469)               (3.6450606 -3.1158902 0.66518012)
  5.0277041e-05               (0.16209257 -1.4872676 1.833127)               (3.3129558 15.400864 -4.2645539)               (-8.4817941 9.2809271 11.430456)               (-8.8042079 4.4155464 0.64758524)               (4.2773334 6.8304366 0.97781484)               (1.4277781 6.8998631 -7.9985074)               (-2.685153 10.467046 11.858748)               (-3.4485081 -2.3980615 4.7778693)               (1.1962025 1.755868 -4.1205855)               (3.2090863 -1.8081824 0.92094036)               (-1.4312815 -1.9066178 3.2731752)               (-3.2421341 -4.2646153 1.8354834)               (0.5771696 1.4734371 -0.29299707)               (-1.3153579 -1.3299136 -5.7706798)               (2.8638494 3.1177171 4.0152733)               (0.30694629 1.0317132 3.6257519)               (2.0191889 3.8187927 -1.8085616)               (3.646493 -3.0560981 0.67030504)
  5.6606551e-05               (0.13286731 -1.4516192 1.8514609)               (4.1228919 14.557173 -4.2981076)               (-8.4786193 9.6039278 11.529955)               (-8.7133529 4.9690858 0.55562156)               (4.1060529 6.7695223 1.0693346)               (1.4361682 6.9916792 -7.6076132)               (-2.6560759 10.379283 11.655215)               (-3.5003282 -2.3759407 4.8150974)               (1.2484498 1.7601691 -4.1975118)               (3.2200593 -1.8122982 0.95544204)               (-1.4491151 -1.9012628 3.2668884)               (-3.2239124 -4.2717034 1.8178859)               (0.55918025 1.4885669 -0.2624205)               (-1.2514361 -1.1653609 -5.8305818)               (2.9706381 3.0922589 4.1395164)               (0.32713555 1.0333843 3.6369499)               (2.0653999 3.8744813 -1.7674253)               (3.6474764 -2.9948617 0.67537491)
  6.2960152e-05               (0.10423052 -1.416249 1.8709778)               (4.9218729 13.814526 -4.3664952)               (-8.3980318 10.016244 11.615902)               (-8.5985712 5.4899713 0.50961412)               (3.9425914 6.7441304 1.1507927)               (1.4724327 7.1060951 -7.2002802)               (-2.5897031 10.347264 11.345235)               (-3.5564071 -2.3524322 4.8483693)               (1.3068646 1.7625256 -4.2748827)               (3.2305191 -1.8134008 0.98850665)               (-1.4676332 -1.8966277 3.2605031)               (-3.2061395 -4.2760113 1.7997186)               (0.54125073 1.5047837 -0.23190541)               (-1.1832245 -0.98771481 -5.891961)               (3.0784347 3.0538499 4.2577736)               (0.34528133 1.0323153 3.6482889)               (2.1093267 3.9327197 -1.7227314)               (3.6479536 -2.9321509 0.68041531)
  6.9343799e-05               (0.076256489 -1.3812406 1.8918233)               (5.3074885 13.298364 -4.3239726)               (-8.2569002 10.542891 11.670799)               (-8.5007923 5.8564854 0.46627334)               (3.7863613 6.7620832 1.2214864)               (1.5342973 7.2357342 -6.7878897)               (-2.5134521 10.388668 10.928184)               (-3.6162517 -2.3278226 4.877712)               (1.3715683 1.7630213 -4.3519854)               (3.2401728 -1.8115151 1.020034)               (-1.486815 -1.8927366 3.2539619)               (-3.1888633 -4.2773168 1.7813678)               (0.52287242 1.5220369 -0.20188167)               (-1.1106108 -0.79645031 -5.9534999)               (3.1876315 3.001189 4.3686621)               (0.36134215 1.028365 3.6598374)               (2.1509202 3.9930006 -1.6744693)               (3.647853 -2.867929 0.68545366)
  7.5763348e-05               (0.049008377 -1.346713 1.9141515)               (5.1258686 13.028332 -4.1092587)               (-8.0418718 11.19516 11.694321)               (-8.4572141 5.9852122 0.40749651)               (3.6381291 6.8283363 1.2802018)               (1.6170643 7.3752848 -6.3804016)               (-2.449283 10.522677 10.408066)               (-3.6792674 -2.3025103 4.9031051)               (1.4424804 1.7617927 -4.4283699)               (3.2493215 -1.8067794 1.0495033)               (-1.506635 -1.8896569 3.2472459)               (-3.1721197 -4.2754667 1.7631608)               (0.50394035 1.540265 -0.17224005)               (-1.0342459 -0.59178515 -6.0151286)               (3.2984461 2.933141 4.4709374)               (0.37565552 1.0213021 3.6717202)               (2.1903999 4.0550604 -1.6225387)               (3.6470899 -2.8021614 0.69051375)
  8.2224334e-05               (0.022538604 -1.3128405 1.9381255)               (4.5105036 12.907979 -3.7808893)               (-7.7158471 11.971344 11.687263)               (-8.4911835 5.8749291 0.33153797)               (3.4999465 6.9440627 1.3246076)               (1.7140669 7.5210454 -5.9861836)               (-2.4023848 10.75957 9.7956543)               (-3.7448571 -2.2767111 4.9244796)               (1.5198066 1.7588491 -4.5032755)               (3.2577462 -1.7991453 1.0770255)               (-1.5270194 -1.8874215 3.2403477)               (-3.1559271 -4.2703797 1.745398)               (0.48450031 1.5592531 -0.14301655)               (-0.95465679 -0.37363094 -6.0776615)               (3.410715 2.8490578 4.5634819)               (0.38820235 1.010845 3.6839958)               (2.2276271 4.1182007 -1.5666851)               (3.6455794 -2.7348155 0.69561533)
  8.8731705e-05               (-0.0031106264 -1.2798365 1.9639014)               (3.7648426 12.800831 -3.458175)               (-7.2495508 12.859149 11.648468)               (-8.6037836 5.6151952 0.24044421)               (3.3753287 7.1043079 1.353029)               (1.8172524 7.6705081 -5.6121)               (-2.3652384 11.094596 9.1083299)               (-3.8123477 -2.2509941 4.9417713)               (1.6035483 1.7538385 -4.5759933)               (3.2651251 -1.7886875 1.102335)               (-1.5479391 -1.8860654 3.2332162)               (-3.1402994 -4.2620134 1.7283498)               (0.46511474 1.5790421 -0.11445112)               (-0.87163365 -0.14244058 -6.1406136)               (3.5237305 2.7488697 4.645245)               (0.39906747 0.99696616 3.6967426)               (2.2624603 4.1815234 -1.5075158)               (3.6432251 -2.6658611 0.70078091)
   9.528963e-05               (-0.027922117 -1.2479663 1.99163)               (3.1884744 12.616326 -3.2462036)               (-6.6424789 13.83936 11.573788)               (-8.7692701 5.3412651 0.14424947)               (3.2702408 7.2967173 1.3656732)               (1.9183639 7.8217093 -5.263763)               (-2.3296942 11.50843 8.3692)               (-3.8809827 -2.2258066 4.954863)               (1.6936089 1.7465107 -4.6460183)               (3.2716503 -1.7753957 1.1254183)               (-1.5693025 -1.8856591 3.2258543)               (-3.1252498 -4.2503737 1.7122594)               (0.44546765 1.5995835 -0.086377616)               (-0.78807405 0.10159429 -6.2012749)               (3.6363189 2.6332821 4.7152274)               (0.40864798 0.97933292 3.7094279)               (2.2951 4.2442111 -1.4446639)               (3.6399198 -2.5952936 0.7060268)
  0.00010190134               (-0.05189044 -1.2175419 2.0214474)               (2.9620132 12.353569 -3.192417)               (-5.9235483 14.886776 11.463949)               (-8.9436928 5.1569266 0.067969463)               (3.1936584 7.4998296 1.367217)               (2.0096847 7.9723284 -4.9454598)               (-2.2970778 11.970852 7.6023709)               (-3.949887 -2.2018572 4.9636212)               (1.7902507 1.736491 -4.7128744)               (3.2769892 -1.7593036 1.1462465)               (-1.5910161 -1.8863141 3.218273)               (-3.1107617 -4.235506 1.697334)               (0.42549765 1.6207899 -0.058887338)               (-0.70358354 0.35865457 -6.2641203)               (3.7468187 2.504027 4.7723557)               (0.4166261 0.95767736 3.7221606)               (2.3253191 4.305142 -1.3783755)               (3.6355551 -2.5231196 0.7113654)
  0.00010856906               (-0.075039317 -1.1889075 2.0534714)               (3.0915444 12.085862 -3.2680963)               (-5.1318858 15.971225 11.313984)               (-9.0853918 5.0794484 0.042692373)               (3.1588299 7.6828996 1.3687933)               (2.0847033 8.1193662 -4.6608952)               (-2.2797436 12.445819 6.8299865)               (-4.018213 -2.1798854 4.9678175)               (1.8935816 1.7230052 -4.7761113)               (3.2808706 -1.7406423 1.1644669)               (-1.6129536 -1.8881353 3.2105012)               (-3.0968392 -4.2174666 1.6837553)               (0.4052255 1.6425609 -0.032016673)               (-0.62069537 0.62701124 -6.3265299)               (3.8532335 2.3637827 4.8155851)               (0.4231146 0.93227973 3.7354489)               (2.3532108 4.3634954 -1.3083226)               (3.6300129 -2.4493573 0.71681382)
  0.00011529413               (-0.097425652 -1.1624386 2.0877954)               (3.4283825 11.917791 -3.3954957)               (-4.3006349 17.05857 11.121302)               (-9.1739377 5.0453001 0.080856325)               (3.1847329 7.8087398 1.3879623)               (2.1383257 8.259051 -4.4132984)               (-2.2949309 12.897483 6.070577)               (-4.0850908 -2.1606242 4.9672635)               (2.0039313 1.7052757 -4.8354737)               (3.2829841 -1.7193101 1.1803524)               (-1.6349441 -1.8912576 3.2025968)               (-3.0834742 -4.1963499 1.6716864)               (0.38493486 1.6647686 -0.0057454726)               (-0.54104028 0.90705526 -6.3885853)               (3.9534706 2.2161963 4.8439808)               (0.42823651 0.90260544 3.748937)               (2.3785945 4.4179584 -1.2345587)               (3.6231766 -2.3740565 0.72237925)
  0.00012207707               (-0.11913421 -1.1385186 2.1244812)               (3.7535191 11.920132 -3.4748398)               (-3.4654195 18.090529 10.884883)               (-9.2118027 4.9720269 0.16532807)               (3.2946511 7.8437475 1.4451125)               (2.1666412 8.3870008 -4.2059173)               (-2.3562756 13.294981 5.3383395)               (-4.1496678 -2.1448812 4.961901)               (2.121385 1.6821599 -4.8909913)               (3.2832407 -1.6954922 1.1939844)               (-1.6567651 -1.8958445 3.1946156)               (-3.0706709 -4.1722612 1.6612636)               (0.3645752 1.6873037 0.019780074)               (-0.46641439 1.1996072 -6.4466769)               (4.0455423 2.0656346 4.8568296)               (0.43219167 0.86841788 3.7621383)               (2.401521 4.4671373 -1.157577)               (3.6149405 -2.2972799 0.72807242)
  0.00012891791               (-0.1402836 -1.1175169 2.1635547)               (3.8830999 12.082508 -3.4339053)               (-2.6371872 19.013021 10.616282)               (-9.2094691 4.8277705 0.26216899)               (3.5125534 7.7673437 1.5569729)               (2.1665387 8.4987625 -4.0422468)               (-2.4684729 13.614346 4.6434837)               (-4.2111482 -2.1335655 4.9516068)               (2.2462044 1.6527299 -4.9423568)               (3.2812429 -1.6693195 1.2054058)               (-1.6781494 -1.9020651 3.1866639)               (-3.0584317 -4.1453075 1.6525953)               (0.34416121 1.7100748 0.044561698)               (-0.39825955 1.5021514 -6.5026241)               (4.1278561 1.9167771 4.8537808)               (0.43520966 0.82947416 3.7749109)               (2.4220976 4.5099034 -1.0772289)               (3.6051971 -2.2191128 0.73389703)
  0.00013581642               (-0.16103588 -1.0997885 2.2050034)               (3.7430221 12.31361 -3.2658289)               (-1.8392705 19.774697 10.306988)               (-9.1717037 4.6464916 0.34611403)               (3.8550618 7.5779668 1.7284942)               (2.1357818 8.5906598 -3.9262005)               (-2.625314 13.841477 3.9916052)               (-4.2688353 -2.1275686 4.9365238)               (2.3785554 1.6159958 -4.9896178)               (3.2764588 -1.6408477 1.2148441)               (-1.6988245 -1.9101215 3.1788426)               (-3.0467618 -4.115644 1.6457714)               (0.32379163 1.7329577 0.068553567)               (-0.33870587 1.8153766 -6.5527069)               (4.1995437 1.7742884 4.8348911)               (0.43602662 0.78574956 3.786464)               (2.4402888 4.5449628 -0.99360227)               (3.5938504 -2.1396574 0.73985891)
  0.00014277241               (-0.18158898 -1.0856356 2.2487715)               (3.378969 12.491309 -3.0225297)               (-1.061395 20.351868 9.9524149)               (-9.099691 4.4832838 0.41192592)               (4.3201971 7.2940725 1.9518891)               (2.0721087 8.6602004 -3.862256)               (-2.8110542 13.968437 3.3861321)               (-4.3221093 -2.1276025 4.9167469)               (2.5183897 1.5711348 -5.0326088)               (3.2685188 -1.6101873 1.2224022)               (-1.7184765 -1.9202235 3.1712736)               (-3.0356901 -4.0834038 1.6408676)               (0.30351102 1.7557655 0.091691492)               (-0.28943296 2.140586 -6.5962311)               (4.2605696 1.6423666 4.800527)               (0.43485904 0.73702512 3.7968091)               (2.4572782 4.5710597 -0.90738547)               (3.5808259 -2.0590282 0.74595308)
  0.00014978429               (-0.20217725 -1.0753002 2.2947437)               (2.9089116 12.535121 -2.7761535)               (-0.30669086 20.744262 9.5626197)               (-9.0013161 4.3656099 0.46884406)               (4.8889194 6.9477496 2.2069979)               (1.9733119 8.7062785 -3.8550154)               (-3.0050177 13.996081 2.8275448)               (-4.3705502 -2.1341389 4.892522)               (2.6651377 1.5175 -5.0711711)               (3.2570452 -1.5774222 1.2283903)               (-1.7367275 -1.9325643 3.1640834)               (-3.0252411 -4.0487455 1.6379585)               (0.28340714 1.7783466 0.1139594)               (-0.25073736 2.4778608 -6.6329956)               (4.3118292 1.5241949 4.7513945)               (0.43193367 0.68359437 3.805552)               (2.4723447 4.58713 -0.81826617)               (3.5660572 -1.9773874 0.75216216)
  0.00015682052               (-0.22297609 -1.0689657 2.3425506)               (2.475603 12.442948 -2.5829294)               (0.41879031 20.98535 9.1352695)               (-8.8948186 4.2841113 0.52723265)               (5.5163898 6.5866049 2.4692359)               (1.8387439 8.7294967 -3.908499)               (-3.1840414 13.939198 2.3144805)               (-4.4137413 -2.1472614 4.864395)               (2.8171633 1.4553501 -5.1049124)               (3.2417045 -1.542697 1.2332065)               (-1.7531849 -1.9472555 3.1574016)               (-3.0154895 -4.0119923 1.637108)               (0.26416178 1.8005014 0.13546739)               (-0.22386608 2.8280604 -6.6618137)               (4.3548652 1.4221911 4.6887717)               (0.42751296 0.62538343 3.8120546)               (2.4859534 4.5919322 -0.72735815)               (3.5495877 -1.8952591 0.75843826)
  0.00016387225               (-0.24425905 -1.0666606 2.3919232)               (2.1766847 12.282782 -2.4634565)               (1.1053912 21.111865 8.6776617)               (-8.8002223 4.215938 0.59127406)               (6.1446088 6.2812166 2.7199638)               (1.6679366 8.7321789 -4.0250615)               (-3.3285967 13.812677 1.844415)               (-4.4516166 -2.1666977 4.8328395)               (2.9728954 1.3852981 -5.1336127)               (3.2222851 -1.5063103 1.2368541)               (-1.7674562 -1.9644264 3.1513714)               (-3.0064808 -3.9733573 1.6383623)               (0.24557344 1.8221065 0.15583617)               (-0.208603 3.1938961 -6.6813744)               (4.392053 1.3368612 4.6141053)               (0.42209138 0.5625868 3.8169704)               (2.4987615 4.5853762 -0.6351439)               (3.5314448 -1.8129255 0.76473923)
    0.000170944               (-0.26636122 -1.0683194 2.4426521)               (2.0275092 12.14612 -2.3962568)               (1.7478591 21.136518 8.2028421)               (-8.7303035 4.1484874 0.65890648)               (6.6985918 6.1271161 2.9471988)               (1.4618467 8.7167327 -4.2053784)               (-3.4259698 13.638533 1.4142292)               (-4.484551 -2.191751 4.7983375)               (3.1308209 1.3087114 -5.1575472)               (3.1983916 -1.4681565 1.239539)               (-1.7792607 -1.9841673 3.1461167)               (-2.9982552 -3.9329789 1.641767)               (0.22743502 1.8428708 0.17531367)               (-0.20338847 3.5770978 -6.6910293)               (4.4261577 1.2672969 4.5289553)               (0.41516931 0.49549815 3.8188372)               (2.5104468 4.5663059 -0.54193527)               (3.5116571 -1.7305238 0.77103691)
  0.00017804067               (-0.28962984 -1.0738146 2.4945054)               (1.957514 12.093478 -2.3287823)               (2.3463762 21.069528 7.7334271)               (-8.6883698 4.0827179 0.72498793)               (7.0924656 6.2210991 3.1436973)               (1.2224629 8.6849258 -4.4479929)               (-3.4706979 13.44142 1.0228359)               (-4.5129907 -2.2213473 4.7612568)               (3.2889485 1.2271033 -5.1764401)               (3.1699564 -1.4281261 1.2420241)               (-1.7883079 -2.0065422 3.1417243)               (-2.9908498 -3.8909694 1.6473736)               (0.20977374 1.8627667 0.19391639)               (-0.20661497 3.9821427 -6.6886065)               (4.4598249 1.2116945 4.4351345)               (0.40688572 0.42432374 3.8173666)               (2.5220134 4.5340831 -0.44748454)               (3.4902688 -1.6482114 0.7772856)
  0.00018516726               (-0.31442096 -1.0829848 2.5472472)               (1.842602 12.137161 -2.1947589)               (2.9022618 20.925497 7.2918012)               (-8.6717772 4.0224496 0.78497737)               (7.2505456 6.6077653 3.3131569)               (0.95480094 8.6368269 -4.7482254)               (-3.4648049 13.245474 0.67392713)               (-4.537689 -2.2539932 4.7219026)               (3.4451742 1.142872 -5.1912355)               (3.1365529 -1.3863182 1.2441282)               (-1.7943628 -2.0315593 3.138283)               (-2.9843281 -3.8474117 1.6552647)               (0.19265761 1.8817053 0.2115992)               (-0.21575304 4.4119132 -6.6736401)               (4.495079 1.1677865 4.3347063)               (0.3969952 0.3491499 3.8121427)               (2.5337207 4.4885287 -0.3523767)               (3.4673552 -1.5661695 0.78342566)
  0.00019232877               (-0.34108929 -1.0956323 2.6006482)               (1.5693535 12.241544 -1.9297567)               (3.4149687 20.717412 6.9016375)               (-8.6763711 3.9647248 0.8377762)               (7.1375109 7.23953 3.4723757)               (0.6683748 8.5694957 -5.0959023)               (-3.4194434 13.07314 0.37710425)               (-4.5594914 -2.2879987 4.6803264)               (3.5970568 1.0585955 -5.202821)               (3.0980126 -1.3426465 1.245987)               (-1.797275 -2.0591462 3.1358723)               (-2.9787727 -3.8023689 1.6655113)               (0.17607839 1.8995518 0.2284125)               (-0.22924009 4.8707643 -6.6459975)               (4.5331084 1.1332679 4.2298814)               (0.38564176 0.27021404 3.8027599)               (2.5469727 4.4295102 -0.25664315)               (3.4430129 -1.484591 0.78938705)
  0.00019953004               (-0.36996806 -1.1115389 2.6544911)               (1.0970143 12.352135 -1.5109157)               (3.8857313 20.453002 6.5824551)               (-8.6980897 3.9002618 0.8869489)               (6.7828828 7.9856695 3.644583)               (0.37910826 8.477173 -5.4748842)               (-3.3507188 12.945435 0.14449422)               (-4.5793566 -2.3214485 4.6364605)               (3.7421069 0.97708123 -5.2117701)               (3.0542717 -1.296944 1.2478706)               (-1.7969791 -2.0891157 3.1345954)               (-2.9742956 -3.755839 1.6782154)               (0.16052844 1.9161533 0.24457601)               (-0.24414255 5.361496 -6.6039747)               (4.5741939 1.1060432 4.1230222)               (0.37293563 0.18792684 3.7888238)               (2.5602326 4.3568662 -0.16129845)               (3.4173602 -1.4036947 0.79509369)
  0.00020677568               (-0.40135416 -1.1304917 2.7085905)               (0.48677723 12.426675 -0.96612077)               (4.3133567 20.131751 6.3447034)               (-8.7322294 3.8209175 0.93908583)               (6.2859094 8.6819202 3.8500887)               (0.10979267 8.3530916 -5.8650026)               (-3.2784049 12.876645 -0.0077651909)               (-4.5982287 -2.3524036 4.5900476)               (3.877934 0.90069894 -5.2199138)               (3.0051043 -1.2490506 1.2500692)               (-1.7934915 -2.1212166 3.1345165)               (-2.9710584 -3.7077864 1.693464)               (0.14565984 1.9313865 0.25978562)               (-0.25780371 5.8850738 -6.5470182)               (4.6175178 1.0844854 4.0165696)               (0.35907231 0.10248009 3.7699085)               (2.5738599 4.2706949 -0.066313956)               (3.3905416 -1.3237341 0.80044295)
  0.00021407014               (-0.43545168 -1.1522974 2.7627784)               (-0.12078072 12.459821 -0.37121442)               (4.6966651 19.746524 6.1916236)               (-8.7727318 3.7264886 0.99995709)               (5.7885973 9.1906473 4.0973412)               (-0.1144565 8.1947268 -6.2487971)               (-3.2250994 12.877958 -0.064314836)               (-4.6170361 -2.3791238 4.5407268)               (4.0025824 0.83147581 -5.228543)               (2.9505275 -1.1989499 1.2524364)               (-1.7868871 -2.1551421 3.1356806)               (-2.969236 -3.6581388 1.7113155)               (0.13154764 1.9451138 0.27446487)               (-0.2673934 6.4396117 -6.4733366)               (4.6614176 1.0675426 3.9130503)               (0.34439997 0.014456237 3.7453523)               (2.5874007 4.1715904 0.027520505)               (3.3627291 -1.2449797 0.80533269)
  0.00022141766               (-0.47239557 -1.1767688 2.8169267)               (-0.56082952 12.481322 0.17254124)               (5.0398845 19.285892 6.1235009)               (-8.813467 3.6241834 1.0713591)               (5.412803 9.4534249 4.3742029)               (-0.27415146 8.0110391 -6.6204606)               (-3.2126766 12.953594 -0.013129911)               (-4.6364467 -2.4002309 4.4882432)               (4.114406 0.77044651 -5.2385661)               (2.8904325 -1.1464957 1.255057)               (-1.7773597 -2.1904806 3.1381616)               (-2.9690717 -3.6067749 1.7318055)               (0.1183113 1.9572306 0.2884976)               (-0.26932192 7.0199055 -6.3813415)               (4.7035834 1.0546463 3.8150213)               (0.32909967 -0.075683638 3.715476)               (2.6007297 4.0597215 0.11904354)               (3.3341 -1.167725 0.80963547)