# Probe 0 (0 0.005 0)
# Probe 1 (-0.01 -0.005 0)
# Probe 2 (0.01 -0.005 0)
# Probe 3 (0 -0.005 0.01)
# Probe 4 (0 -0.005 -0.01)
# Probe 5 (-0.01 0.005 0)
# Probe 6 (0.01 0.005 0)
# Probe 7 (0 0.005 0.01)
# Probe 8 (0 0.005 -0.01)
# Probe 9 (-0.005 0.005 0)
# Probe 10 (0.005 0.005 0)
# Probe 11 (0 0.005 0.005)
# Probe 12 (0 0.005 -0.005)
# Probe 13 (-0.01 0.015 0)
# Probe 14 (0.01 0.015 0)
# Probe 15 (0 0.015 0.01)
# Probe 16 (0 0.015 -0.01)
# Probe 17 (0 0.015 0)
#         Probe               0               1               2               3               4               5               6               7               8               9              10              11              12              13              14              15              16              17
#          Time
  6.2579266e-06       100133.33       100158.03        100142.5       100138.27       100089.72       100142.83       100145.77       100139.76       100141.42       100140.52       100134.83       100137.33       100137.39       100132.19       100147.49       100139.59       100134.88       100132.17
  1.2504571e-05       100129.62        100154.2       100138.91       100134.52       100086.33       100138.88       100141.52       100135.68       100137.57          100137       100131.05       100133.47       100133.77       100128.42       100144.06       100135.22       100131.08        100128.5
  1.8725709e-05       100128.82        100153.5       100138.15        100133.7       100085.93       100137.81        100140.2       100134.43       100136.63       100136.39       100130.11       100132.54       100132.96       100127.52        100143.7       100133.82       100130.04       100127.83
  2.4925188e-05       100128.37       100153.23       100137.69        100133.3       100085.94       100137.11       100139.27       100133.73       100136.07       100136.14       100129.48       100132.02       100132.49       100127.04       100143.68       100132.75       100129.22       100127.58
  3.1105295e-05       100128.09       100153.16       100137.37        100133.1       100086.23       100136.62        100138.6       100133.05       100135.78        100136.1       100128.97       100131.66       100132.14       100126.82       100143.83       100132.01       100128.49       100127.55
   3.726779e-05       100127.93       100153.23       100137.18       100133.09       100086.72       100136.27       100138.13       100132.48       100135.65       100136.19       100128.51       100131.47       100131.94       100126.73       100144.13       100131.37       100127.79       100127.66
   4.341428e-05       100127.85        100153.4       100137.05        100133.2       100087.39       100136.04       100137.84       100132.11       100135.66       100136.37       100128.09       100131.38       100131.81       100126.61       100144.43       100130.83       100126.93       100127.88
  4.9546308e-05       100127.83       100153.62       100136.97        100133.4       100088.21       100135.88       100137.72       100131.74       100135.77       100136.63       100127.73       100131.36       100131.74       100126.73       100144.83       100130.45        100126.7       100128.16
  5.5665365e-05       100127.84       100153.89       100136.87       100133.66       100089.13       100135.75       100137.71       100131.32       100135.92       100136.92       100127.35       100131.36       100131.71       100126.81       100145.16       100130.06       100126.03       100128.49
  6.1772891e-05       100127.89       100154.22       100136.83       100134.01       100090.16       100135.72       100137.83       100131.21       100136.11       100137.27          100127       100131.45       100131.73       100126.98       100145.48       100129.77       100125.71       100128.88
  6.7870283e-05       100127.97       100154.59       100136.77       100134.39        100091.3       100135.76       100138.07       100130.88        100136.3       100137.65       100126.66        100131.6       100131.78       100127.15       100145.81       100129.56       100125.23        100129.3
  7.3958903e-05       100128.05       100154.96       100136.69       100134.77       100092.46       100135.81       100138.33       100130.57       100136.54       100138.03        100126.3       100131.73       100131.83       100127.33       100146.11       100129.37       100124.99       100129.71
  8.0040106e-05       100128.12       100155.34        100136.6       100135.16       100093.71       100135.86       100138.65       100130.24        100136.7       100138.42       100125.92       100131.88       100131.87       100127.58       100146.38       100129.23       100124.61       100130.15
  8.6115242e-05       100128.19       100155.71       100136.47       100135.52        100094.9       100135.95       100138.98       100130.16       100136.85        100138.8       100125.55       100132.01       100131.92       100127.71       100146.67       100129.09       100124.22       100130.58
  9.2185663e-05       100128.28       100156.09       100136.32       100135.89       100096.23       100136.07       100139.29       100129.87       100136.95       100139.18        100125.2       100132.19       100131.99        100127.9       100146.94       100129.01       100123.88       100131.02
  9.8252731e-05       100128.34       100156.45        100136.1       100136.22       100097.46       100136.21       100139.54       100129.74       100137.06       100139.55       100124.82       100132.35       100132.03       100128.12       100147.15       100128.94       100123.51       100131.44
  0.00010431782       100128.39        100156.8       100135.86       100136.53        100098.7       100136.37       100139.74       100129.88       100137.14        100139.9       100124.41       100132.48       100132.06       100128.28       100147.33       100128.85       100123.18       100131.84
  0.00011038232       100128.45       100157.13       100135.55       100136.83       100099.92        100136.5       100139.84       100129.86       100137.25       100140.25       100124.01       100132.63        100132.1       100128.46       100147.49       100128.81       100122.87       100132.23
  0.00011644763        100128.5       100157.44        100135.2        100137.1       100101.16       100136.67       100139.86       100129.95       100137.19       100140.59        100123.6       100132.81       100132.13       100128.69       100147.57       100128.75       100122.47       100132.61
  0.00012251518       100128.53       100157.73        100134.8       100137.36       100102.38       100136.81       100139.77       100130.07       100137.22       100140.89       100123.18       100132.93       100132.15       100128.89       100147.65        100128.7       100122.31       100132.96
   0.0001285864       100128.54       100157.98       100134.31        100137.6       100103.59       100136.91       100139.57       100130.28       100137.17       100141.18       100122.69       100133.04       100132.14        100129.1       100147.56       100128.74       100122.07       100133.28
  0.00013466275       100128.55       100158.22       100133.78       100137.84       100104.81       100137.01       100139.29       100130.68       100137.12       100141.43       100122.19       100133.18       100132.14       100129.29       100147.63        100128.7       100121.86       100133.56
  0.00014074565       100128.54       100158.44        100133.2       100138.07       100106.01       100137.06       100138.93       100131.11       100137.01       100141.67       100121.65       100133.24       100132.11        100129.4       100147.58       100128.69       100121.71       100133.83
  0.00014683654       100128.55       100158.67       100132.57       100138.35       100107.24       100137.07       100138.54       100131.64       100136.88        100141.9       100121.08       100133.42       100132.09       100129.61       100147.38       100128.62       100121.54        100134.1
  0.00015293682       100128.57       100158.88        100131.9       100138.63       100108.43       100137.17       100138.15       100132.15       100136.62       100142.11       100120.48       100133.54        100132.1        100129.8       100147.28       100128.71       100121.52       100134.35
  0.00015904784       100128.57       100159.08       100131.17       100138.95       100109.61       100137.21       100137.76        100132.7       100136.59       100142.28       100119.82       100133.61       100132.07          100130       100147.07       100128.64       100121.47       100134.57
  0.00016517088       100128.55       100159.27       100130.35       100139.27       100110.76       100137.19       100137.41       100133.13       100136.44       100142.43       100119.12       100133.69       100132.03       100130.13          100147       100128.63       100121.43       100134.77
  0.00017130722       100128.55       100159.45       100129.51       100139.67       100111.91       100137.24       100137.09       100133.63       100136.23       100142.55        100118.4       100133.76          100132       100130.32        100146.7       100128.67        100121.4       100134.97
    0.000177458       100128.56       100159.65       100128.64       100140.11       100113.05       100137.29       100136.86        100134.1       100135.96       100142.67       100117.69       100133.89       100131.98       100130.48       100146.45       100128.74       100121.36       100135.18
  0.00018362426       100128.55       100159.82       100127.71       100140.56       100114.15       100137.35       100136.63       100134.48        100135.7       100142.74       100116.96       100133.95       100131.95       100130.61       100146.23       100128.77       100121.28       100135.37
  0.00018980696       100128.56       100159.99       100126.79       100141.04       100115.26       100137.47       100136.41       100134.84       100135.44       100142.81       100116.26       100134.03       100131.92       100130.64       100145.99       100128.87       100121.19       100135.54
   0.0001960069       100128.57       100160.17       100125.76       100141.63       100116.36       100137.62        100136.1        100135.1       100135.17       100142.85       100115.59       100134.18        100131.9       100130.73       100145.66       100129.18       100121.28       100135.72
  0.00020222474       100128.59       100160.32       100124.72       100142.19       100117.46       100137.75       100135.71       100135.43       100134.89       100142.87       100114.95       100134.24       100131.88       100130.83       100145.44       100129.06       100121.19       100135.88
  0.00020846098       100128.61       100160.47       100123.68       100142.75       100118.57       100138.02       100135.18       100135.71       100134.63       100142.89       100114.37       100134.28       100131.86       100130.82       100145.14       100129.18        100121.2       100136.05
  0.00021471592       100128.64       100160.63       100122.59        100143.3       100119.69       100138.28       100134.53       100135.95       100134.38       100142.91       100113.85       100134.37       100131.85       100130.83        100144.9       100129.47       100121.15       100136.22
  0.00022098966        100128.7       100160.77       100121.53       100143.92       100120.82       100138.59       100133.76       100136.16       100134.13       100142.92       100113.43       100134.48       100131.84       100130.82       100144.53       100129.87        100121.2       100136.39
  0.00022728217       100128.74        100160.9       100120.43       100144.43       100121.96       100138.87       100132.87       100136.39       100133.88       100142.89       100113.06       100134.51        100131.8       100130.77       100144.32       100130.02       100121.15       100136.52
  0.00023359318       100128.81       100161.03       100119.38       100144.92       100123.11       100139.18       100131.89       100136.59       100133.64       100142.89       100112.78       100134.58       100131.79       100130.84       100144.14        100130.4       100121.28       100136.69
  0.00023992217       100128.88       100161.15       100118.33       100145.38       100124.26        100139.5       100130.81       100136.78       100133.37       100142.88        100112.6       100134.66       100131.75       100130.84       100143.86       100130.38       100121.29       100136.84
  0.00024626843       100128.96       100161.28       100117.35       100145.85        100125.4        100139.8       100129.61          100137        100133.1       100142.87       100112.51       100134.72       100131.73       100130.85        100143.6        100130.8       100121.47       100136.99
  0.00025263107       100129.08       100161.42        100116.4        100146.1       100126.55       100140.06       100128.32       100137.16       100132.86       100142.88       100112.52       100134.79       100131.72       100130.95       100143.52       100131.28       100121.54       100137.16
  0.00025900897       100129.19       100161.55       100115.51       100146.36       100127.66       100140.29       100126.88       100137.33       100132.58       100142.87       100112.59       100134.86        100131.7       100130.93        100143.4        100131.7       100121.78        100137.3
  0.00026540085       100129.33       100161.69        100114.7       100146.55       100128.74       100140.46       100125.29       100137.45       100132.33       100142.88       100112.72       100134.93       100131.68       100131.09       100143.34       100132.23        100122.1       100137.47
  0.00027180528       100129.46       100161.82       100113.93       100146.72       100129.78       100140.59       100123.53       100137.63       100132.08       100142.85        100112.9       100134.99       100131.65       100131.21       100143.13       100132.74       100122.41       100137.61
  0.00027822067        100129.6       100161.96       100113.27       100146.83       100130.78        100140.7       100121.63       100137.75       100131.84       100142.83       100113.11       100135.05       100131.63       100131.31       100143.23       100133.27       100122.75       100137.77
   0.0002846453       100129.75       100162.09        100112.7       100146.89       100131.75       100140.75        100119.6       100137.91       100131.58        100142.8       100113.36        100135.1       100131.59       100131.45       100143.22       100133.87       100123.13       100137.92
  0.00029107738       100129.93       100162.23        100112.2       100146.92       100132.68       100140.79       100117.56       100138.07       100131.31       100142.78       100113.64       100135.18       100131.56        100131.6       100143.31       100134.45       100123.56       100138.09
  0.00029751505       100130.12       100162.37       100111.82       100146.97        100133.6       100140.85       100115.56       100138.29       100131.06       100142.76       100113.95       100135.25       100131.54       100131.77        100143.3       100135.12       100124.07       100138.26
  0.00030395637        100130.3       100162.53       100111.55       100147.02       100134.52       100140.84       100113.68        100138.5       100130.78       100142.72       100114.25       100135.33        100131.5       100131.98       100143.48        100135.8       100124.56       100138.42
  0.00031039944       100130.48       100162.66       100111.35       100147.03       100135.39       100140.87       100112.08       100138.67       100130.47       100142.68       100114.53       100135.38       100131.45       100132.07       100143.79       100136.44       100125.05       100138.57
  0.00031684234       100130.69       100162.83       100111.26       100147.05       100136.29       100140.86          100111       100138.92       100130.14       100142.65       100114.85       100135.45       100131.41       100132.36       100144.02       100137.17       100125.58       100138.74
  0.00032328319       100130.92          100163       100111.23       100147.02       100137.18       100140.81        100110.5       100139.17       100129.84       100142.63       100115.15       100135.54       100131.39       100132.62       100144.25       100137.88       100126.15       100138.91
  0.00032972017       100131.11       100163.16       100111.25       100146.98       100138.07       100140.72       100110.61       100139.38       100129.47       100142.58       100115.41        100135.6       100131.32       100132.79       100144.58       100138.63        100126.7       100139.06
  0.00033615156       100131.34       100163.34       100111.28       100146.96       100138.96       100140.64       100111.28       100139.63       100129.18       100142.55       100115.67       100135.67       100131.29       100133.03       100144.87       100139.36       100127.25       100139.23
  0.00034257569       100131.55       100163.53       100111.33       100146.91       100139.85       100140.56       100112.35       100139.85       100128.79       100142.52        100115.9       100135.74       100131.24       100133.26       100145.12        100140.1       100127.83       100139.41
  0.00034899107       100131.78       100163.72       100111.32       100146.89       100140.74       100140.47       100113.61       100140.06       100128.58       100142.49       100116.13       100135.82       100131.21        100133.5       100145.51       100140.85        100128.4       100139.58
  0.00035539628       100132.01        100163.9       100111.25       100146.79       100141.61       100140.41        100114.9       100140.32       100128.21       100142.48       100116.33       100135.89       100131.18       100133.72       100145.85       100141.59       100128.92       100139.74
  0.00036179008       100132.24       100164.08       100111.11       100146.69       100142.48       100140.45       100116.13       100140.54       100127.86       100142.48       100116.51       100135.96       100131.14       100133.97       100146.21       100142.37       100129.51       100139.91
  0.00036817137       100132.46       100164.24       100110.91       100146.53       100143.33       100140.28       100117.15        100140.8       100127.65       100142.48       100116.68       100136.02       100131.12       100134.18       100146.52       100143.07       100130.06       100140.07
  0.00037453921       100132.71       100164.39       100110.64       100146.32       100144.16       100140.29       100117.88       100141.05        100127.4        100142.5       100116.84       100136.12       100131.14        100134.4       100146.86       100143.82       100130.62       100140.24
  0.00038089283       100132.93        100164.5       100110.36       100146.03       100144.95       100140.33       100118.22       100141.37       100127.15       100142.51       100116.95       100136.18       100131.12       100134.64       100147.21       100144.51       100131.18       100140.38
  0.00038723167       100133.17       100164.61       100110.15        100145.7       100145.73       100140.44       100118.28       100141.62       100127.01       100142.56       100117.09       100136.27       100131.16       100134.85       100147.53       100145.25       100131.74       100140.55
  0.00039355534       100133.41       100164.67       100110.02       100145.24       100146.46       100140.58       100117.98       100141.97       100126.86       100142.59        100117.2       100136.37       100131.19       100135.08       100147.83       100145.92       100132.28        100140.7
  0.00039986366       100133.65        100164.7       100110.01       100144.72       100147.14       100140.74       100117.47       100142.47       100126.74       100142.63        100117.3       100136.45       100131.25       100135.29       100148.14        100146.6       100132.87       100140.87
   0.0004061567       100133.89        100164.7       100110.08       100144.07       100147.79       100140.94       100116.75       100142.68       100126.69       100142.66       100117.39       100136.54       100131.32       100135.49        100148.4       100147.26       100133.41       100141.02
  0.00041243471       100134.13       100164.64       100110.23       100143.32       100148.37       100141.09       100115.87       100143.13       100126.64       100142.68       100117.48       100136.64       100131.41       100135.67       100148.71       100147.89       100133.98       100141.19
  0.00041869822       100134.36       100164.56       100110.43       100142.48       100148.89       100141.32       100114.93       100143.52       100126.63       100142.69       100117.54       100136.74       100131.49       100135.74       100148.97       100148.49       100134.52       100141.32
  0.00042494801       100134.59       100164.42        100110.7       100141.58       100149.36       100141.49          100114       100143.87       100126.65       100142.69        100117.6       100136.84       100131.59       100135.88       100149.22       100149.07       100135.06       100141.46
  0.00043118511       100134.83       100164.25       100111.05       100140.64       100149.77       100141.69       100113.19       100144.25       100126.63       100142.66       100117.67       100136.93        100131.7          100136       100149.46       100149.59       100135.58        100141.6
  0.00043741087       100135.06       100164.06       100111.49       100139.74       100150.13        100141.9       100112.65       100144.66       100126.67       100142.62       100117.73       100137.04       100131.81       100136.11       100149.73       100150.12       100136.11       100141.76
  0.00044362689       100135.28       100163.79          100112        100138.9        100150.4        100142.1       100112.46       100145.03       100126.71       100142.56       100117.77       100137.14       100131.92       100136.21       100149.93       100150.58       100136.59       100141.88
  0.00044983506        100135.5       100163.52       100112.56       100138.27       100150.63        100142.3       100112.69        100145.4       100126.79        100142.5       100117.82       100137.24       100132.05       100136.29       100150.14       100150.99       100137.07       100142.03
  0.00045603758       100135.74        100163.2       100113.16       100137.82       100150.79       100142.39       100113.34       100145.78       100126.92       100142.42       100117.89       100137.35        100132.2       100136.36       100150.36       100151.37       100137.51       100142.16
  0.00046223685       100135.96       100162.81       100113.76       100137.52       100150.87       100142.53       100114.34       100146.15       100127.05       100142.35       100117.92       100137.47       100132.35       100136.45       100150.54        100151.7       100137.95        100142.3
  0.00046843551       100136.18        100162.4       100114.38       100137.31       100150.89       100142.57       100115.61        100146.5       100127.22       100142.27       100117.98        100137.6       100132.53       100136.49       100150.74       100151.97       100138.37       100142.41
  0.00047463633        100136.4       100161.93       100114.98        100137.2       100150.83       100142.55       100117.01       100146.79       100127.36       100142.21       100118.03       100137.73       100132.69       100136.56       100150.92        100152.2       100138.76       100142.55
  0.00048084212       100136.61       100161.39       100115.53       100137.08       100150.72       100142.54       100118.43       100147.09       100127.54       100142.16       100118.08       100137.85       100132.88       100136.61       100151.09       100152.38       100139.13       100142.69
  0.00048705566        100136.8       100160.79       100115.98       100137.02       100150.51       100142.45       100119.73       100147.34       100127.71       100142.12       100118.11       100137.96       100133.05       100136.68        100151.2       100152.52        100139.5       100142.79
  0.00049327959       100137.01       100160.17       100116.34       100137.07       100150.25        100142.3       100120.84       100147.56       100127.94       100142.12       100118.14        100138.1       100133.25       100136.76       100151.34       100152.68       100139.84       100142.89
  0.00049951624        100137.2       100159.53       100116.58       100137.29       100149.94       100142.15        100121.7       100147.73       100128.25       100142.14       100118.17       100138.22       100133.45       100136.86       100151.45       100152.87       100140.16       100142.99
  0.00050576754       100137.39       100158.85        100116.7       100137.65       100149.59       100141.95       100122.24        100147.8       100128.54       100142.18       100118.21       100138.35       100133.67       100136.97       100151.55       100153.07       100140.49       100143.09
  0.00051203496        100137.6       100158.15       100116.79       100138.17       100149.19        100141.8       100122.48       100147.95       100128.84       100142.26       100118.26       100138.51        100133.9       100137.12       100151.65       100153.33       100140.82        100143.2
  0.00051831935       100137.75       100157.36        100116.8        100138.8        100148.7       100141.63       100122.31       100147.96       100129.11       100142.33       100118.25       100138.61       100134.11       100137.24       100151.69        100153.6       100141.07       100143.28
  0.00052462101       100137.94       100156.55       100116.83       100139.53       100148.15       100141.58       100121.85       100148.02       100129.43       100142.45       100118.29       100138.75       100134.36       100137.38       100151.75       100153.93       100141.39       100143.38
  0.00053093961       100138.12        100155.7       100116.91       100140.28        100147.5       100141.46       100121.08       100147.97       100129.72       100142.58       100118.33       100138.91       100134.59       100137.52       100151.81       100154.25       100141.65       100143.46
  0.00053727433       100138.29        100154.8       100117.05       100141.05       100146.78       100141.53       100119.98       100147.93       100130.03       100142.74       100118.34       100139.06       100134.82       100137.67       100151.83       100154.59        100141.9       100143.53
  0.00054362395       100138.47       100153.86       100117.11       100141.86       100145.97       100141.65       100118.65       100147.89       100130.36       100142.91       100118.37        100139.2       100135.07       100137.83       100151.85       100154.99       100142.14       100143.61
  0.00054998697       100138.64       100152.87       100117.15       100142.74       100145.02       100141.86       100117.13       100147.84       100130.76        100143.1        100118.4       100139.36        100135.3       100138.02       100151.85       100155.33       100142.35       100143.68
   0.0005563618        100138.8       100151.83       100117.07       100143.72       100143.97       100142.16       100115.51       100147.75       100131.12        100143.3       100118.43       100139.49       100135.52        100138.2       100151.83       100155.64       100142.53       100143.74
  0.00056274688       100138.98       100150.75       100116.83       100144.85       100142.79       100142.54       100113.88       100147.67        100131.5       100143.53       100118.46       100139.67       100135.76       100138.39       100151.83       100155.98       100142.65       100143.81
   0.0005691408       100139.13        100149.6        100116.4       100145.98       100141.52          100143       100112.33       100147.61       100131.93       100143.75       100118.49       100139.83       100135.97       100138.58       100151.79        100156.3       100142.84       100143.86
   0.0005755424        100139.3       100148.41       100115.87       100147.13       100140.18       100143.47       100110.94       100147.56       100132.33       100143.99       100118.53          100140       100136.19       100138.79       100151.75       100156.58       100142.97       100143.92
  0.00058195081       100139.43       100147.17       100115.24       100148.12       100138.72       100143.99       100109.77       100147.55       100132.73       100144.21       100118.56       100140.12       100136.39       100138.97        100151.7       100156.87       100143.05       100143.96
  0.00058836552       100139.57       100145.92       100114.67       100148.93       100137.18       100144.56       100108.85       100147.54       100133.15       100144.41       100118.59       100140.29       100136.57       100139.18       100151.63       100157.17       100143.02          100144
  0.00059478632       100139.72       100144.71        100114.2       100149.56       100135.67       100145.13       100108.19       100147.53       100133.62       100144.64       100118.62       100140.44       100136.77       100139.42       100151.55       100157.47       100143.04       100144.05
   0.0006012133       100139.86       100143.54       100113.95       100150.08       100134.11       100145.79       100107.77       100147.58       100134.04       100144.85       100118.67       100140.61       100136.95       100139.67       100151.47       100157.77       100143.02       100144.08