# Probe 0 (0 0.005 0)
# Probe 1 (-0.01 -0.005 0)
# Probe 2 (0.01 -0.005 0)
# Probe 3 (0 -0.005 0.01)
# Probe 4 (0 -0.005 -0.01)
# Probe 5 (-0.01 0.005 0)
# Probe 6 (0.01 0.005 0)
# Probe 7 (0 0.005 0.01)
# Probe 8 (0 0.005 -0.01)
# Probe 9 (-0.005 0.005 0)
# Probe 10 (0.005 0.005 0)
# Probe 11 (0 0.005 0.005)
# Probe 12 (0 0.005 -0.005)
# Probe 13 (-0.01 0.015 0)
# Probe 14 (0.01 0.015 0)
# Probe 15 (0 0.015 0.01)
# Probe 16 (0 0.015 -0.01)
# Probe 17 (0 0.015 0)
#         Probe               0               1               2               3               4               5               6               7               8               9              10              11              12              13              14              15              16              17
#          Time
    0.066404369       100138.24       100141.75       100135.64        100129.4       100139.93       100137.38        100149.6       100128.95       100159.13       100139.77       100141.86       100138.55       100144.16        100143.2       100153.93       100152.84       100137.39       100141.74
    0.066412231       100138.26       100140.53       100136.48       100129.41       100139.75       100137.62       100149.72       100129.76       100158.93       100139.95       100141.92       100138.49       100144.05       100142.84       100153.76          100153       100137.61       100141.72
