# Probe 0 (0 0.005 0)
# Probe 1 (-0.01 -0.005 0)
# Probe 2 (0.01 -0.005 0)
# Probe 3 (0 -0.005 0.01)
# Probe 4 (0 -0.005 -0.01)
# Probe 5 (-0.01 0.005 0)
# Probe 6 (0.01 0.005 0)
# Probe 7 (0 0.005 0.01)
# Probe 8 (0 0.005 -0.01)
# Probe 9 (-0.005 0.005 0)
# Probe 10 (0.005 0.005 0)
# Probe 11 (0 0.005 0.005)
# Probe 12 (0 0.005 -0.005)
# Probe 13 (-0.01 0.015 0)
# Probe 14 (0.01 0.015 0)
# Probe 15 (0 0.015 0.01)
# Probe 16 (0 0.015 -0.01)
# Probe 17 (0 0.015 0)
#         Probe               0               1               2               3               4               5               6               7               8               9              10              11              12              13              14              15              16              17
#          Time
    0.066404369               (0.96852909 -0.18934077 -1.6279957)               (3.5274386 2.8455925 -4.666126)               (1.2622268 1.3473428 -0.28023525)               (0.92126904 3.1177328 0.53813288)               (-0.033706156 6.5306967 0.20213536)               (-0.94382533 6.641454 -7.0942689)               (-0.84545285 5.3458585 0.68112609)               (-11.151355 3.958584 -0.7998936)               (7.0484462 6.4712 -0.30381459)               (2.95617 1.9522875 1.4820396)               (0.47279512 1.2869458 1.7184619)               (-2.1931095 -3.216416 0.040312099)               (0.84958822 -2.0130042 1.2501909)               (-1.0139335 5.2968173 -4.5843204)               (1.8915071 4.5100253 8.547025)               (-6.0361837 5.4462346 -0.34740871)               (8.2400246 7.2425978 -2.0515455)               (-0.23506996 -0.15221948 1.1445344)
    0.066412231               (0.94081087 -0.12344321 -1.6233562)               (3.7999728 3.1123589 -4.5572639)               (1.3268806 1.4471113 -0.22391799)               (0.96668885 3.0991131 0.64130389)               (-0.045622385 6.6275788 0.3405136)               (-0.81315618 6.8985261 -7.0093859)               (-0.73222253 5.3875126 0.69543399)               (-11.523327 4.0613894 -1.0784412)               (6.9410329 6.33031 0.032327375)               (2.9398454 1.9914237 1.3521857)               (0.4815177 1.2680199 1.7536923)               (-2.1861676 -3.2195 0.030365577)               (0.80924538 -1.9947053 1.3654385)               (-1.0744021 5.3523108 -4.4676558)               (1.6419678 4.5510021 8.4094724)               (-6.1819517 5.4387866 -0.28041584)               (8.3611269 7.1384084 -2.1724826)               (-0.24341257 -0.13566121 1.166959)
