# Probe 0 (0 0.005 0)
# Probe 1 (-0.01 -0.005 0)
# Probe 2 (0.01 -0.005 0)
# Probe 3 (0 -0.005 0.01)
# Probe 4 (0 -0.005 -0.01)
# Probe 5 (-0.01 0.005 0)
# Probe 6 (0.01 0.005 0)
# Probe 7 (0 0.005 0.01)
# Probe 8 (0 0.005 -0.01)
# Probe 9 (-0.005 0.005 0)
# Probe 10 (0.005 0.005 0)
# Probe 11 (0 0.005 0.005)
# Probe 12 (0 0.005 -0.005)
# Probe 13 (-0.01 0.015 0)
# Probe 14 (0.01 0.015 0)
# Probe 15 (0 0.015 0.01)
# Probe 16 (0 0.015 -0.01)
# Probe 17 (0 0.015 0)
#         Probe               0               1               2               3               4               5               6               7               8               9              10              11              12              13              14              15              16              17
#          Time
    0.084157495       100168.42       100149.96       100150.26       100170.37       100150.04        100181.9       100171.26       100185.11       100138.94       100173.14          100158       100164.81       100140.38       100173.58       100183.18       100182.86        100164.4       100175.64
    0.084161625       100168.16       100150.05        100150.2       100170.49       100150.16       100181.33       100171.49       100185.26       100138.42       100173.15       100158.08       100165.05       100140.47       100173.59       100183.28       100182.94       100164.41       100175.65
    0.084165717       100167.94       100150.17       100150.17       100170.63       100150.29       100180.79       100171.79       100185.46       100137.91       100173.19        100158.2       100165.31       100140.56       100173.62       100183.41       100183.06       100164.45        100175.7
    0.084169786       100167.68       100150.28       100150.16       100170.77       100150.43       100180.27       100172.03       100185.63        100137.4       100173.22        100158.3       100165.58       100140.66       100173.66       100183.54       100183.15       100164.46       100175.75
    0.084173839       100167.41       100150.37       100150.13       100170.88       100150.55       100179.77       100172.18        100185.8       100136.88       100173.24       100158.45       100165.82       100140.77       100173.67       100183.65       100183.24       100164.42       100175.77
    0.084177888        100167.1       100150.46       100150.11       100170.97       100150.68       100179.31       100172.36       100185.94       100136.34       100173.25       100158.55       100166.09       100140.85       100173.69       100183.75       100183.32       100164.41        100175.8
    0.084181946       100166.79       100150.54        100150.1       100171.06        100150.8       100178.89       100172.48        100186.1       100135.81       100173.27       100158.66       100166.35       100140.93        100173.7       100183.85        100183.4        100164.4       100175.82
    0.084186028       100166.47       100150.64       100150.12       100171.15       100150.95       100178.52       100172.62       100186.27       100135.29        100173.3       100158.77       100166.62       100141.08       100173.73       100183.96       100183.51       100164.39       100175.86
    0.084190147       100166.15       100150.74       100150.13       100171.21        100151.1       100178.19       100172.65       100186.43       100134.77       100173.31       100158.84       100166.85       100141.21       100173.75       100184.06        100183.6       100164.38       100175.89
     0.08419432        100165.8       100150.83       100150.15       100171.23       100151.23       100177.89       100172.64        100186.6       100134.23       100173.32       100158.91       100167.09       100141.35       100173.76       100184.15       100183.68       100164.33        100175.9
    0.084198562       100165.44       100150.92       100150.16       100171.19       100151.38       100177.65       100172.59        100186.7        100133.7       100173.31       100158.96       100167.36       100141.48       100173.77       100184.23       100183.75       100164.27       100175.91
    0.084202893       100165.07       100151.02       100150.18       100171.12       100151.52       100177.45       100172.55       100186.85       100133.17       100173.31       100159.01       100167.58       100141.66       100173.76       100184.31       100183.83        100164.2       100175.92
    0.084207336        100164.7       100151.12       100150.19       100170.99       100151.67       100177.29       100172.44          100187       100132.65       100173.29       100159.06       100167.81       100141.82       100173.75       100184.37       100183.88       100164.12       100175.91
    0.084211921       100164.32       100151.27       100150.21       100170.81       100151.83        100177.2       100172.33       100187.17       100132.17       100173.28       100159.11       100168.04       100141.99       100173.74       100184.44       100183.95       100164.02       100175.91
     0.08421658        100164.1       100151.59       100150.39       100170.71       100152.15        100177.3       100172.41       100187.53        100131.9       100173.41       100159.28       100168.34       100142.27       100173.88       100184.64       100184.17       100164.09       100176.06
    0.084221206       100163.63       100151.73       100150.34       100170.32       100152.27        100177.2       100172.22       100187.66       100131.45       100173.31        100159.2       100168.44        100142.3       100173.78       100184.62       100184.15       100163.92       100175.96
    0.084225802       100163.22       100151.97       100150.34       100169.92       100152.44       100177.17       100172.16       100187.82       100131.15       100173.27       100159.19       100168.61       100142.29       100173.71       100184.61       100184.16       100163.78       100175.91
    0.084230374       100162.83       100152.27       100150.36       100169.46       100152.65       100177.16       100172.05       100188.05       100130.95       100173.23       100159.19       100168.78       100142.25       100173.68       100184.64        100184.2       100163.66       100175.89
     0.08423493        100162.5       100152.66       100150.39       100168.93       100152.89       100177.16       100172.04       100188.28       100130.84       100173.22       100159.23       100168.99       100142.16       100173.66       100184.68       100184.26       100163.54       100175.88
    0.084239478       100162.18       100153.15       100150.48       100168.37        100153.2       100177.21       100172.11       100188.53       100130.87       100173.25       100159.29       100169.27       100142.06       100173.69       100184.75       100184.35       100163.46       100175.91
    0.084244045       100161.83       100153.64        100150.5       100167.66       100153.46       100177.15       100172.18       100188.72       100130.92       100173.23       100159.31       100169.37       100141.79       100173.65       100184.77       100184.38       100163.32       100175.88
    0.084248673       100161.52       100154.27       100150.58       100166.92       100153.79        100177.1       100172.27       100188.97       100131.09       100173.26       100159.33       100169.64       100141.56       100173.67       100184.83       100184.47       100163.23       100175.91
    0.084253412       100161.27       100154.97       100150.66       100166.13       100154.13          100177       100172.37       100189.21       100131.33       100173.29       100159.41       100169.94       100141.28       100173.69       100184.89       100184.56       100163.13       100175.94
    0.084258322       100160.97       100155.77       100150.73       100165.33       100154.49       100176.84       100172.43       100189.43       100131.62       100173.32       100159.46        100170.2       100140.96       100173.71       100184.94       100184.66       100163.02       100175.97
    0.084263427       100160.88       100156.87          100151       100164.74       100155.05       100176.81        100172.7       100189.84       100132.18       100173.56       100159.72       100170.66       100140.88       100173.93       100185.19       100184.98       100163.11        100176.2
    0.084268581       100160.51       100157.73       100150.95       100163.95       100155.28       100176.42       100172.72       100189.83       100132.45       100173.49       100159.66       100170.66       100140.54       100173.85       100185.13       100184.96       100162.91       100176.13
    0.084273765       100160.16       100158.66       100150.91       100163.31       100155.51          100176       100172.68       100189.87       100132.77       100173.45       100159.67       100170.91       100140.17       100173.79       100185.11       100184.98       100162.71       100176.08
     0.08427898       100159.87       100159.65       100150.88       100162.91       100155.74       100175.55       100172.65       100189.82       100133.12       100173.43       100159.67       100171.07       100139.82       100173.75       100185.08       100185.04       100162.53       100176.05
    0.084284227       100159.65       100160.66       100150.85       100162.72       100155.95       100175.12       100172.64       100189.75       100133.47       100173.44       100159.72       100171.28       100139.51       100173.75       100185.08       100185.09       100162.37       100176.05
    0.084289507       100159.45       100161.66       100150.81       100162.77       100156.15        100174.7       100172.61       100189.73       100133.81       100173.45       100159.78       100171.47       100139.22       100173.75        100185.1       100185.17       100162.24       100176.07
    0.084294822       100159.31       100162.62       100150.75       100162.99       100156.32       100174.33       100172.61       100189.53        100134.1       100173.47       100159.86       100171.67       100138.96       100173.75       100185.09       100185.25       100162.06       100176.08
    0.084300168       100159.24       100163.56       100150.69       100163.39       100156.52       100174.05       100172.59       100189.38       100134.37        100173.5       100159.94       100171.91       100138.75       100173.78       100185.11       100185.36       100161.91       100176.11
     0.08430552       100159.17       100164.41        100150.6       100163.86        100156.7       100173.82       100172.53       100189.17       100134.56        100173.5       100160.06       100172.13       100138.55       100173.77        100185.1       100185.42       100161.74       100176.12
    0.084310874       100159.14       100165.22       100150.48        100164.3       100156.89       100173.71       100172.46       100188.86       100134.69       100173.51       100160.17       100172.34       100138.44       100173.78       100185.08       100185.48       100161.58       100176.13
    0.084316235       100159.13       100166.01       100150.38       100164.71       100157.12       100173.72        100172.4       100188.54       100134.78       100173.53       100160.31       100172.56       100138.33       100173.79       100185.07       100185.56       100161.41       100176.15
    0.084321606       100159.13       100166.77       100150.26          100165       100157.35       100173.84       100172.29        100188.2       100134.82       100173.53       100160.43       100172.78       100138.29       100173.79       100185.05       100185.62       100161.19       100176.16
    0.084326992        100159.2       100167.55       100150.16       100165.11       100157.61        100174.1        100172.2       100187.87       100134.86       100173.57        100160.6       100173.01       100138.41       100173.82       100185.05       100185.71       100161.08        100176.2
    0.084332317       100159.35        100168.4       100150.14       100165.12       100157.92       100174.53       100172.17       100187.61       100134.96       100173.68       100160.82        100173.3       100138.61       100173.91        100185.1       100185.83       100161.01        100176.3
    0.084337489       100159.38       100169.06       100149.98       100164.82       100158.05       100174.86       100171.96       100187.19        100134.9       100173.63       100160.89       100173.42       100138.67       100173.85          100185       100185.82       100160.79       100176.25
    0.084342539       100159.51       100169.75        100149.9       100164.46       100158.21       100175.31       100171.86       100186.84       100134.95       100173.63       100161.02        100173.6       100138.85       100173.85       100184.96       100185.87       100160.63       100176.26
    0.084347462       100159.67       100170.41       100149.85       100163.99       100158.33       100175.79       100171.82       100186.49       100135.06       100173.66       100161.09       100173.79       100139.04       100173.87       100184.94       100185.92       100160.52       100176.28
    0.084352256       100159.88       100171.01       100149.84       100163.46       100158.41        100176.3       100171.77       100186.18       100135.23       100173.69       100161.17          100174       100139.26        100173.9       100184.92          100186       100160.34       100176.32
    0.084356936       100160.09       100171.53       100149.83       100162.84       100158.43       100176.79       100171.75       100185.88       100135.45        100173.7       100161.23       100174.18       100139.46       100173.91       100184.88       100186.04       100160.25       100176.34
    0.084361519       100160.36          100172       100149.86       100162.24       100158.42       100177.29        100171.8       100185.64       100135.76       100173.76        100161.3       100174.41       100139.68       100173.97       100184.88       100186.12       100160.16        100176.4
    0.084366017       100160.63       100172.39       100149.92        100161.6       100158.37       100177.77       100171.87        100185.4       100136.14       100173.81       100161.36       100174.63       100139.93       100174.02       100184.89        100186.2       100160.07       100176.47
    0.084370441       100160.92       100172.69       100149.99       100161.01       100158.28       100178.22       100171.98       100185.17       100136.58       100173.88       100161.46       100174.86       100140.17       100174.08       100184.89       100186.29          100160       100176.53
    0.084374801       100161.16       100172.91       100150.06       100160.44       100158.12       100178.61        100172.1       100184.95       100137.05       100173.92       100161.48       100175.05       100140.39       100174.12       100184.87       100186.35       100159.93       100176.58
    0.084379103       100161.39       100173.12       100150.15          100160       100157.95       100178.97       100172.28       100184.74       100137.61       100173.98       100161.45       100175.27       100140.62       100174.19       100184.86       100186.45       100159.88       100176.65
    0.084383357       100161.54       100173.27       100150.22       100159.62        100157.7       100179.25       100172.45       100184.52       100138.19       100173.99       100161.43       100175.46       100140.84       100174.21       100184.82       100186.46       100159.77       100176.67
    0.084387571       100161.66       100173.47       100150.32       100159.45       100157.46       100179.52       100172.64       100184.35       100138.83       100174.05       100161.44       100175.67       100141.06       100174.26       100184.82       100186.54       100159.72       100176.73
    0.084391751       100161.68       100173.66        100150.4       100159.28       100157.17       100179.72       100172.83       100184.16       100139.47       100174.07        100161.4       100175.83       100141.23       100174.28       100184.76       100186.57       100159.64       100176.76
    0.084395903       100161.64       100173.87        100150.5       100159.24       100156.87       100179.88       100173.05       100184.03       100140.16       100174.11       100161.29       100176.03       100141.42       100174.31       100184.72       100186.61       100159.58       100176.79
    0.084400034       100161.52       100174.08       100150.59       100159.18       100156.58          100180       100173.25        100183.9       100140.86       100174.14       100161.28        100176.2       100141.61       100174.33       100184.68       100186.64       100159.47       100176.82
    0.084404148       100161.31       100174.28       100150.68       100159.22       100156.31       100180.09       100173.46       100183.81       100141.57       100174.16       100161.12       100176.37       100141.78       100174.36       100184.62       100186.67        100159.4       100176.85
    0.084408248       100161.03       100174.47       100150.78        100159.3       100156.09       100180.15       100173.66       100183.74       100142.28       100174.18       100160.98       100176.54       100141.95       100174.38       100184.57       100186.69       100159.32       100176.88
    0.084412337        100160.7        100174.6       100150.86       100159.46       100155.91       100180.17        100173.8       100183.69       100142.96        100174.2       100160.84        100176.7       100142.12       100174.39        100184.5       100186.71       100159.24       100176.88
    0.084416414       100160.36       100174.72       100150.96       100159.85       100155.82       100180.18       100173.97       100183.67       100143.65       100174.22       100160.68       100176.86       100142.29        100174.4       100184.44       100186.72       100159.17       100176.91
     0.08442048       100159.96       100174.81       100151.04       100160.31       100155.79       100180.15       100174.07       100183.66       100144.27       100174.22       100160.44       100176.99       100142.46        100174.4       100184.36       100186.73       100159.06       100176.91
    0.084424532       100159.59        100174.9       100151.15       100160.95       100155.87       100180.13       100174.18       100183.69       100144.88       100174.25       100160.26       100177.14       100142.63       100174.42       100184.31       100186.75       100159.02       100176.93
    0.084428565       100159.23          100175       100151.24       100161.66          100156       100180.08       100174.22       100183.74       100145.44       100174.26       100159.99        100177.3       100142.81       100174.42       100184.22       100186.75       100158.94       100176.93
    0.084432578       100158.94       100175.13       100151.34       100162.44       100156.19       100180.04       100174.31       100183.81       100145.94       100174.28       100159.69       100177.44          100143       100174.43       100184.15       100186.76       100158.87       100176.95
    0.084436568       100158.66       100175.27       100151.43       100163.24       100156.39       100179.99       100174.31       100183.89       100146.38        100174.3       100159.38       100177.57       100143.18       100174.43       100184.07       100186.75       100158.81       100176.95
    0.084440533       100158.47       100175.45       100151.54       100164.06       100156.59       100179.95       100174.34       100183.99       100146.77       100174.32       100159.06       100177.69       100143.37       100174.44          100184       100186.76       100158.76       100176.97
    0.084444475       100158.33       100175.66       100151.63       100164.87       100156.75       100179.92       100174.38       100184.11       100147.09       100174.34       100158.75       100177.82       100143.56       100174.45       100183.92       100186.76       100158.71       100176.98
    0.084448393       100158.23       100175.88       100151.72        100165.7       100156.86       100179.91       100174.37       100184.25       100147.37       100174.36       100158.38       100177.93       100143.75       100174.46       100183.84       100186.77       100158.67       100176.98
     0.08445229       100158.22       100176.14       100151.84       100166.53       100156.92       100179.93       100174.39        100184.4       100147.61       100174.41       100158.06       100178.08       100143.97       100174.49       100183.78       100186.79       100158.64       100177.02
    0.084456167       100158.23       100176.38       100151.93       100167.36       100156.91       100179.96       100174.42       100184.54       100147.82       100174.43       100157.63       100178.18       100144.15        100174.5       100183.71       100186.79       100158.61       100177.03
    0.084460027       100158.29       100176.62       100152.02       100168.19       100156.86       100179.99       100174.44        100184.7          100148       100174.46       100157.26       100178.28       100144.36        100174.5       100183.63       100186.79       100158.59       100177.04
    0.084463875       100158.38       100176.86        100152.1       100169.01       100156.79       100180.04       100174.47       100184.86       100148.16       100174.48       100156.84       100178.37       100144.55       100174.52       100183.56       100186.79       100158.58       100177.05
    0.084467715       100158.54       100177.12       100152.21       100169.82       100156.76       100180.14        100174.5       100185.05        100148.3       100174.53       100156.44        100178.5       100144.78       100174.54       100183.49        100186.8       100158.59       100177.07
    0.084471552       100158.71       100177.37        100152.3        100170.6       100156.76       100180.25       100174.55       100185.24       100148.43       100174.57       100156.05       100178.57       100144.95       100174.56       100183.44       100186.82       100158.62       100177.09
    0.084475393        100158.9       100177.61       100152.38       100171.32       100156.77       100180.35       100174.55       100185.41       100148.52       100174.59       100155.65       100178.65       100145.16       100174.57       100183.35       100186.82       100158.61        100177.1
    0.084479243       100159.12       100177.85       100152.46       100172.01       100156.81       100180.48       100174.57       100185.61       100148.61       100174.63       100155.27       100178.73       100145.36       100174.59        100183.3       100186.82       100158.64       100177.12
    0.084483109       100159.35       100178.07       100152.53       100172.63       100156.81       100180.61       100174.56       100185.79       100148.67       100174.66        100154.9       100178.78       100145.55        100174.6       100183.23       100186.81       100158.63       100177.13
    0.084486996       100159.62       100178.29       100152.61       100173.22       100156.78       100180.75       100174.54          100186       100148.75       100174.71       100154.56       100178.84       100145.77       100174.63       100183.18       100186.83       100158.68       100177.15
    0.084490912       100159.89        100178.5       100152.68       100173.75       100156.67       100180.89       100174.49        100186.2       100148.79       100174.75       100154.25       100178.91       100145.98       100174.64       100183.13       100186.84       100158.71       100177.17
    0.084494864       100160.14       100178.68       100152.74        100174.2        100156.5          100181       100174.39       100186.39       100148.83       100174.78       100153.96       100178.95        100146.2       100174.65       100183.06       100186.83       100158.76       100177.18
    0.084498858       100160.42       100178.86       100152.79        100174.6       100156.38       100181.11       100174.27       100186.59       100148.88       100174.81        100153.7       100178.97       100146.44       100174.67       100183.01       100186.83        100158.8        100177.2
    0.084502903        100160.7       100179.02       100152.84       100174.94        100156.4        100181.2       100174.16       100186.79       100148.91       100174.83       100153.45          100179       100146.66       100174.68       100182.95       100186.83       100158.89       100177.21
    0.084507005       100160.99       100179.17       100152.89       100175.22       100156.67       100181.27       100173.97          100187       100148.96       100174.87       100153.29       100179.03       100146.88        100174.7        100182.9       100186.83       100158.92       100177.23
    0.084511175       100161.27       100179.31       100152.92       100175.47        100157.2       100181.32       100173.75       100187.18       100148.99       100174.89       100153.12       100179.03       100147.06        100174.7       100182.85       100186.82       100158.98       100177.23
    0.084515421       100161.55       100179.43       100152.94       100175.68       100157.95       100181.33       100173.58       100187.37       100149.01       100174.91       100152.99       100179.03       100147.23        100174.7       100182.78       100186.81       100159.06       100177.23
    0.084519753       100161.84       100179.54       100152.95       100175.84       100158.82       100181.32       100173.35       100187.57       100149.04       100174.92       100153.02       100179.01       100147.36       100174.71       100182.72        100186.8       100159.12       100177.24
    0.084524182       100162.15       100179.66       100152.96       100176.05        100159.7       100181.28       100173.13       100187.76       100149.07       100174.95       100152.87       100179.02       100147.42       100174.73       100182.68       100186.79       100159.21       100177.25
    0.084528709       100162.52       100179.82       100153.01       100176.26       100160.53       100181.27       100172.93       100187.98       100149.12       100175.01       100152.91       100179.07       100147.51       100174.78       100182.67       100186.84       100159.36       100177.31
     0.08453331       100162.82        100179.9       100152.96       100176.41       100161.16       100181.17       100172.63       100188.12        100149.1          100175        100152.9       100179.04       100147.49       100174.77       100182.59        100186.8       100159.48       100177.29
     0.08453799       100163.14       100179.98       100152.92       100176.55       100161.68       100181.05       100172.36       100188.26       100149.07       100174.98       100152.93       100178.99       100147.45       100174.77       100182.52       100186.78        100159.5       100177.29
     0.08454276       100163.48       100180.08       100152.88       100176.63       100162.12       100180.94       100172.14        100188.4       100149.03       100174.99       100153.01       100178.98       100147.38       100174.77       100182.48       100186.77       100159.62       100177.29
    0.084547625       100163.84       100180.17       100152.84       100176.68        100162.5       100180.82       100171.88       100188.56       100148.95          100175       100153.09       100179.03        100147.3       100174.79       100182.43       100186.78       100159.72       100177.31
     0.08455259       100164.21       100180.25       100152.78       100176.67       100162.82       100180.69       100171.63       100188.69       100148.84       100174.99       100153.17       100179.02       100147.16       100174.79       100182.38       100186.77       100159.82       100177.31
    0.084557663       100164.63       100180.36       100152.76       100176.67       100163.15        100180.6        100171.4       100188.87       100148.75       100175.05       100153.32       100179.08       100147.04       100174.86       100182.39       100186.82       100160.01       100177.38
    0.084562724       100165.24       100180.66       100152.93        100176.8       100163.66        100180.7       100171.38       100189.21       100148.84       100175.26       100153.63       100179.34       100147.18       100175.12       100182.56       100187.05       100160.37       100177.63
    0.084567544       100165.26       100180.37       100152.52       100176.35       100163.52        100180.2       100170.82       100188.97       100148.34        100174.9       100153.36       100179.05       100146.83       100174.78       100182.15        100186.7       100160.09       100177.29
    0.084572203       100165.48       100180.32       100152.33       100176.15       100163.56       100179.95       100170.46       100188.94       100148.05       100174.76       100153.32       100178.94       100146.53       100174.68       100181.98       100186.58       100160.08       100177.18
    0.084576773       100165.81       100180.38       100152.25       100176.09       100163.62       100179.84       100170.29       100189.01       100147.87       100174.76       100153.37       100178.94       100146.28        100174.7       100181.97       100186.59       100160.16        100177.2
    0.084581301       100166.17       100180.47       100152.21       100176.11       100163.59       100179.77       100170.25       100189.09       100147.73       100174.81       100153.45          100179       100145.96       100174.77       100182.01       100186.63       100160.34       100177.26