# Probe 0 (0 0.005 0)
# Probe 1 (-0.01 -0.005 0)
# Probe 2 (0.01 -0.005 0)
# Probe 3 (0 -0.005 0.01)
# Probe 4 (0 -0.005 -0.01)
# Probe 5 (-0.01 0.005 0)
# Probe 6 (0.01 0.005 0)
# Probe 7 (0 0.005 0.01)
# Probe 8 (0 0.005 -0.01)
# Probe 9 (-0.005 0.005 0)
# Probe 10 (0.005 0.005 0)
# Probe 11 (0 0.005 0.005)
# Probe 12 (0 0.005 -0.005)
# Probe 13 (-0.01 0.015 0)
# Probe 14 (0.01 0.015 0)
# Probe 15 (0 0.015 0.01)
# Probe 16 (0 0.015 -0.01)
# Probe 17 (0 0.015 0)
#         Probe               0               1               2               3               4               5               6               7               8               9              10              11              12              13              14              15              16              17
#          Time
    0.084157495               (-1.1981263 1.5297267 -4.2398049)               (-1.2693857 12.202975 -11.842696)               (-4.8330437 11.213694 12.759147)               (-6.4304711 7.2621175 -0.36207081)               (8.9629341 12.660542 -0.22448304)               (-4.0302198 8.6512721 -3.7483624)               (-2.2642491 8.8516888 9.8813247)               (-2.3875558 2.1235379 1.2862235)               (7.0332157 10.533658 -1.3517341)               (-2.5659223 -3.7399021 -2.4861881)               (0.77572262 6.0581556 1.9638773)               (-2.3867445 4.527979 0.0274701)               (2.6572584 0.17508198 -5.952661)               (-0.4101105 -1.6344946 -2.0147406)               (3.1892999 1.1707643 2.8460002)               (-2.148845 -0.067584004 -0.92565583)               (-2.1921321 7.0691675 -0.60825289)               (-0.03183033 -0.42913235 0.54109111)
    0.084161625               (-1.0556511 1.5688364 -4.2353258)               (-1.3184631 12.191745 -11.818314)               (-4.9571336 11.27468 12.807605)               (-6.5184482 7.2350386 -0.42566797)               (8.9578215 12.637804 -0.27675705)               (-4.0622814 9.0192655 -3.5501412)               (-2.1688307 9.0273646 9.8729597)               (-2.4185208 2.150301 1.2879992)               (6.9255369 10.5951 -1.4865651)               (-2.5211945 -3.7276517 -2.5072828)               (0.75889335 6.0412213 1.9521306)               (-2.3148563 4.5419247 0.033679413)               (2.6465488 0.15419366 -5.9267749)               (-0.40377136 -1.6376644 -2.0044717)               (3.1758162 1.2098721 2.8586947)               (-2.1497635 -0.075513248 -0.90764015)               (-2.1505074 7.0996037 -0.61584001)               (-0.038412565 -0.43203886 0.5436303)
    0.084165717               (-0.91041829 1.5957987 -4.2311502)               (-1.3689854 12.178505 -11.794533)               (-5.0856618 11.324416 12.833204)               (-6.6092261 7.2094375 -0.49203532)               (8.9560436 12.613435 -0.32896002)               (-4.0977854 9.3560225 -3.3538443)               (-2.0308455 9.2165016 9.8812024)               (-2.4506227 2.1755474 1.2871716)               (6.8265917 10.646809 -1.6340461)               (-2.4742983 -3.7128787 -2.5279905)               (0.74067393 6.0268592 1.9413093)               (-2.2404378 4.5553004 0.041381662)               (2.6439712 0.14329817 -5.8897107)               (-0.39762565 -1.6402787 -1.9946819)               (3.1632665 1.2486351 2.8704835)               (-2.1506655 -0.083342835 -0.8894286)               (-2.1079316 7.1306061 -0.62361079)               (-0.045034761 -0.4349389 0.54612697)
    0.084169786               (-0.76163697 1.6054743 -4.2272873)               (-1.4215912 12.16335 -11.771207)               (-5.2174725 11.3633 12.836628)               (-6.7030324 7.1862345 -0.56106497)               (8.9576736 12.586974 -0.38149891)               (-4.1339986 9.6604527 -3.1622883)               (-1.8536705 9.4118893 9.907519)               (-2.4838697 2.1993482 1.2838065)               (6.7357513 10.687295 -1.7923337)               (-2.4252067 -3.6955545 -2.5484698)               (0.72126728 6.0152403 1.9311656)               (-2.1635045 4.5683806 0.0505443)               (2.6494922 0.14184178 -5.8417457)               (-0.39165073 -1.6423706 -1.9853181)               (3.1515927 1.2871846 2.8814445)               (-2.1516689 -0.091143714 -0.87098267)               (-2.0641502 7.1624294 -0.63164277)               (-0.051717601 -0.437843 0.54858508)
    0.084173839               (-0.60899375 1.5921315 -4.223675)               (-1.4767639 12.146242 -11.748161)               (-5.3512156 11.391413 12.81898)               (-6.7995708 7.1669339 -0.63258589)               (8.9627853 12.557993 -0.43465457)               (-4.1682772 9.9317722 -2.9784136)               (-1.6428609 9.6053511 9.9535114)               (-2.5186266 2.2218225 1.2781215)               (6.6522821 10.715197 -1.9594401)               (-2.3740068 -3.6756782 -2.5688438)               (0.70086055 6.0060865 1.9214694)               (-2.0844142 4.5815374 0.060778279)               (2.6625947 0.14904386 -5.7831268)               (-0.38583119 -1.6439615 -1.9763447)               (3.1407717 1.3255585 2.8915896)               (-2.1528341 -0.098954589 -0.85227502)               (-2.0191446 7.1949148 -0.6400795)               (-0.05846795 -0.44075552 0.55101207)
    0.084177888               (-0.45194154 1.5497924 -4.220432)               (-1.5350411 12.126989 -11.725139)               (-5.4856774 11.408642 12.781855)               (-6.8990722 7.1533968 -0.70625394)               (8.9714553 12.525984 -0.48872255)               (-4.1981708 10.17043 -2.8046151)               (-1.4058569 9.7890553 10.020005)               (-2.5550784 2.2432818 1.2704146)               (6.5751165 10.7296 -2.1338433)               (-2.3207493 -3.653258 -2.5892443)               (0.68011063 5.9998526 1.9121034)               (-2.0032499 4.5950177 0.072605416)               (2.6830081 0.16421337 -5.7140496)               (-0.38015306 -1.645071 -1.9677251)               (3.130773 1.3638569 2.9009429)               (-2.1539875 -0.10676014 -0.83324515)               (-1.9727189 7.2279851 -0.64890295)               (-0.065305565 -0.44368546 0.55341123)
    0.084181946               (-0.28999779 1.4723011 -4.2173304)               (-1.5969982 12.10521 -11.701804)               (-5.6196519 11.41468 12.727233)               (-7.0013194 7.1479795 -0.78172384)               (8.9837461 12.49036 -0.54395376)               (-4.2213944 10.377657 -2.6428457)               (-1.1512981 9.9559211 10.107457)               (-2.5936198 2.2637497 1.260968)               (6.5029639 10.729789 -2.3142155)               (-2.2654774 -3.6282953 -2.6097839)               (0.65918862 5.9967734 1.9028028)               (-1.9195771 4.6088201 0.086002392)               (2.7103646 0.18661244 -5.6347027)               (-0.37459569 -1.6457245 -1.9594073)               (3.1215548 1.402205 2.9095186)               (-2.155239 -0.11461039 -0.81382147)               (-1.9248365 7.2618339 -0.65810291)               (-0.072254017 -0.44664089 0.55578892)
    0.084186028               (-0.12291294 1.3538258 -4.2142444)               (-1.6632493 12.080379 -11.677818)               (-5.7518653 11.409102 12.657429)               (-7.1060407 7.1536286 -0.85830339)               (8.9997057 12.45043 -0.60050917)               (-4.2358552 10.555219 -2.4948022)               (-0.88848039 10.100073 10.215403)               (-2.6345677 2.2835027 1.2499894)               (6.4344445 10.715389 -2.4993917)               (-2.2082525 -3.6008159 -2.6305803)               (0.6382212 5.9970805 1.8941638)               (-1.8334847 4.6232523 0.10078104)               (2.7443395 0.2148391 -5.5452415)               (-0.3691399 -1.6459334 -1.9513637)               (3.1130832 1.4407395 2.9173309)               (-2.1564808 -0.12250151 -0.79390018)               (-1.8751705 7.2967535 -0.6677268)               (-0.079331911 -0.44963266 0.55815363)
    0.084190147               (0.049476115 1.1896675 -4.2110231)               (-1.7344595 12.051875 -11.652809)               (-5.8810194 11.391442 12.575045)               (-7.2128875 7.1739808 -0.93508499)               (9.019361 12.405375 -0.65842449)               (-4.2397438 10.705322 -2.3619792)               (-0.62735025 10.216852 10.34266)               (-2.6783279 2.3028955 1.2377294)               (6.368144 10.686441 -2.6883289)               (-2.1491658 -3.5708492 -2.6517274)               (0.61760976 6.0010498 1.8861413)               (-1.7450985 4.6385225 0.11699379)               (2.7844654 0.24810281 -5.4457231)               (-0.36377227 -1.6457027 -1.9435579)               (3.1053751 1.4795691 2.9243441)               (-2.1577211 -0.13049298 -0.77339607)               (-1.823612 7.3327921 -0.67784038)               (-0.086564681 -0.45266937 0.56050749)
     0.08419432               (0.22709122 0.97679219 -4.2071894)               (-1.8113503 12.019044 -11.626412)               (-6.0058977 11.361249 12.482911)               (-7.321267 7.2135219 -1.0108953)               (9.0427315 12.354196 -0.71762615)               (-4.231536 10.830486 -2.2457373)               (-0.37702576 10.303594 10.486919)               (-2.7253419 2.3223528 1.2245364)               (6.3027083 10.643367 -2.8799969)               (-2.0883211 -3.5384322 -2.6732988)               (0.59762622 6.008959 1.8787923)               (-1.6540622 4.6547364 0.13444695)               (2.8305032 0.28497551 -5.3362883)               (-0.35847787 -1.6450394 -1.9359625)               (3.0982429 1.5188597 2.9305652)               (-2.1589985 -0.13861622 -0.75225538)               (-1.7698791 7.3699311 -0.68844677)               (-0.093983432 -0.45576295 0.56286048)
    0.084198562               (0.40976109 0.71501387 -4.2022775)               (-1.8946601 11.981358 -11.598287)               (-6.1254662 11.318098 12.38398)               (-7.4305507 7.2774276 -1.0846202)               (9.0698355 12.295673 -0.77791157)               (-4.210057 10.93341 -2.1473404)               (-0.14623244 10.361115 10.64405)               (-2.7761547 2.3422687 1.2099766)               (6.2369575 10.587091 -3.0733815)               (-2.0258471 -3.5036399 -2.6953696)               (0.57850718 6.0213578 1.872376)               (-1.5598411 4.6720838 0.15342357)               (2.8819199 0.32386025 -5.2170762)               (-0.35324755 -1.6439496 -1.9285471)               (3.091778 1.5587658 2.9359547)               (-2.1602689 -0.14689654 -0.73043695)               (-1.7137588 7.4083385 -0.69961801)               (-0.10161894 -0.4589289 0.56521321)
    0.084202893               (0.59737762 0.40782831 -4.1958489)               (-1.9851517 11.938499 -11.568149)               (-6.2389426 11.261589 12.281276)               (-7.5402066 7.3717344 -1.1554862)               (9.1006908 12.228285 -0.83892624)               (-4.1745471 11.016859 -2.0680523)               (0.056622024 10.392008 10.809099)               (-2.8313472 2.3633949 1.1941857)               (6.1699852 10.519117 -3.2674227)               (-1.9618701 -3.4665539 -2.718008)               (0.56048754 6.0390246 1.8670146)               (-1.4622642 4.6907164 0.1738086)               (2.9382723 0.36266281 -5.0882804)               (-0.34806871 -1.6424088 -1.9212944)               (3.0859635 1.5994866 2.9404614)               (-2.1615495 -0.15538291 -0.70775234)               (-1.654824 7.4481916 -0.71137414)               (-0.10950773 -0.46218108 0.56757535)
    0.084207336               (0.78987697 0.063439667 -4.1874647)               (-2.0834999 11.890489 -11.535852)               (-6.3458122 11.191357 12.177821)               (-7.6496923 7.5029364 -1.2241742)               (9.1353108 12.150135 -0.90012252)               (-4.1247911 11.083398 -2.009226)               (0.22736011 10.401761 10.97474)               (-2.8916711 2.3864993 1.1773472)               (6.1012632 10.44158 -3.4610091)               (-1.896537 -3.4272451 -2.7412735)               (0.54400249 6.0625097 1.8625276)               (-1.3609388 4.7105263 0.19569257)               (2.9991923 0.39888129 -4.9498937)               (-0.34291794 -1.6404184 -1.9141715)               (3.0807569 1.6412346 2.9440343)               (-2.1628343 -0.16413781 -0.68400607)               (-1.592565 7.4897489 -0.7238966)               (-0.11769913 -0.46554035 0.56995282)
    0.084211921               (0.98720277 -0.30407654 -4.1766096)               (-2.190289 11.837736 -11.501436)               (-6.4458142 11.107088 12.076622)               (-7.7590427 7.6777442 -1.2940189)               (9.1736698 12.058808 -0.96072544)               (-4.0612664 11.135174 -1.9724454)               (0.36293224 10.397649 11.132044)               (-2.9579973 2.4124042 1.1594708)               (6.0306605 10.357423 -3.6529508)               (-1.8299829 -3.3858156 -2.7652056)               (0.52937341 6.0927673 1.8588593)               (-1.2552184 4.731932 0.21881076)               (3.0640869 0.42987418 -4.8017107)               (-0.33778228 -1.6379606 -1.9071509)               (3.076175 1.6843037 2.9465771)               (-2.1641323 -0.17322519 -0.65906504)               (-1.5265278 7.5331663 -0.73711355)               (-0.12624958 -0.46902824 0.5723583)
     0.08421658               (1.1858888 -0.6661873 -4.16332)               (-2.3034801 11.782154 -11.466013)               (-6.5370253 11.010717 11.982554)               (-7.8664831 7.8976295 -1.3710467)               (9.2147147 11.953647 -1.0184573)               (-3.9871627 11.172954 -1.9595798)               (0.45951361 10.388633 11.269626)               (-3.0293546 2.4419933 1.14082)               (5.9599709 10.272278 -3.8380902)               (-1.7637623 -3.343331 -2.7893274)               (0.51723267 6.1298693 1.8560829)               (-1.1464549 4.7547783 0.24289302)               (3.1307012 0.45223969 -4.6469987)               (-0.33274203 -1.6350678 -1.9003112)               (3.0722882 1.7280901 2.9479817)               (-2.1654194 -0.18252726 -0.63325096)               (-1.4574937 7.5777805 -0.75080951)               (-0.13505152 -0.47260878 0.57476951)
    0.084221206               (1.3801709 -0.98805558 -4.1487439)               (-2.4193053 11.726452 -11.431446)               (-6.617632 10.906126 11.900223)               (-7.9698025 8.1571622 -1.4639014)               (9.2565865 11.835827 -1.0706156)               (-3.9082435 11.197309 -1.9706634)               (0.52249455 10.383764 11.373682)               (-3.1040222 2.4754541 1.1218995)               (5.8919914 10.193153 -4.0103185)               (-1.6999578 -3.3013317 -2.8129153)               (0.50799382 6.173204 1.8541286)               (-1.0378901 4.7786383 0.26737618)               (3.1959965 0.46349895 -4.4910196)               (-0.32791011 -1.6318138 -1.8937766)               (3.069167 1.771552 2.9482168)               (-2.1666249 -0.19182858 -0.60710544)               (-1.3872185 7.6223385 -0.76455954)               (-0.14390193 -0.4762109 0.57714778)
    0.084225802               (1.569825 -1.2461553 -4.134363)               (-2.5366146 11.671742 -11.398937)               (-6.6884739 10.79509 11.830738)               (-8.0692378 8.4536234 -1.5842087)               (9.29817 11.704462 -1.1161679)               (-3.829261 11.20885 -2.0046427)               (0.56285129 10.388924 11.439145)               (-3.1815342 2.5136335 1.1027066)               (5.8278857 10.124903 -4.1686173)               (-1.6389112 -3.2602763 -2.835842)               (0.50168417 6.2228679 1.8528594)               (-0.92871272 4.8030076 0.2923837)               (3.2584374 0.46259377 -4.3352337)               (-0.32328631 -1.6282285 -1.8875308)               (3.0667189 1.8147111 2.9472967)               (-2.1677853 -0.20115018 -0.58070136)               (-1.3157084 7.6668365 -0.77833342)               (-0.15280665 -0.47983323 0.57949044)
    0.084230374               (1.754546 -1.421684 -4.1226287)               (-2.6543379 11.618654 -11.369789)               (-6.7502739 10.679082 11.774326)               (-8.1647988 8.7831275 -1.7401303)               (9.3381346 11.558781 -1.154335)               (-3.755266 11.206991 -2.0605909)               (0.59137654 10.407121 11.463376)               (-3.2612703 2.5574592 1.083125)               (5.7687326 10.071998 -4.3123116)               (-1.5808805 -3.2205771 -2.8580021)               (0.4982605 6.2789683 1.8521982)               (-0.81938417 4.8279548 0.31764541)               (3.3163642 0.44849747 -4.1813761)               (-0.31885991 -1.6243465 -1.8815621)               (3.0648644 1.8576197 2.9452256)               (-2.1688927 -0.21050275 -0.55396943)               (-1.2428255 7.7110722 -0.79195156)               (-0.16177033 -0.48347753 0.58179847)
     0.08423493               (1.9330052 -1.5031083 -4.1161101)               (-2.7715723 11.567352 -11.345267)               (-6.8034472 10.559134 11.730437)               (-8.2567172 9.1408488 -1.932139)               (9.3749537 11.398116 -1.1847152)               (-3.6913978 11.190163 -2.1377943)               (0.61904859 10.43844 11.446542)               (-3.3420946 2.6079594 1.0633426)               (5.715322 10.03843 -4.4411104)               (-1.5259982 -3.1825794 -2.8792791)               (0.49758742 6.3416647 1.8520866)               (-0.70942081 4.8533601 0.34293837)               (3.368375 0.42188407 -4.0309531)               (-0.31462733 -1.6201987 -1.8758472)               (3.0635316 1.9003082 2.9420034)               (-2.1698902 -0.21990691 -0.5269214)               (-1.1685432 7.7550576 -0.80536145)               (-0.17080466 -0.48715038 0.5840708)
    0.084239478               (2.102519 -1.4885229 -4.1193618)               (-2.8873721 11.51773 -11.326528)               (-6.8478679 10.435921 11.697974)               (-8.3455891 9.5201096 -2.1497615)               (9.4068883 11.222134 -1.2073283)               (-3.6427569 11.156138 -2.2357298)               (0.65423108 10.481916 11.391074)               (-3.4218344 2.6663407 1.0439181)               (5.6682929 10.027596 -4.5549565)               (-1.4742982 -3.1465945 -2.8995591)               (0.49950468 6.4112037 1.8525885)               (-0.59902348 4.8789473 0.36804038)               (3.4127871 0.38273829 -3.8860808)               (-0.31057876 -1.61581 -1.8703699)               (3.0626611 1.9428126 2.9376393)               (-2.1707978 -0.22937783 -0.49947994)               (-1.0927799 7.7988417 -0.8185793)               (-0.17992043 -0.4908552 0.58630756)
    0.084244045               (2.2607014 -1.3873262 -4.1373257)               (-3.0011284 11.469444 -11.314449)               (-6.8829167 10.309259 11.675408)               (-8.4340373 9.9135347 -2.3738301)               (9.4321249 11.030191 -1.2227561)               (-3.614168 11.101955 -2.3545519)               (0.70349664 10.534913 11.301669)               (-3.5009635 2.7343148 1.0245587)               (5.6278536 10.042355 -4.6543184)               (-1.4255725 -3.1127415 -2.9187964)               (0.50377364 6.4882507 1.8537139)               (-0.48772462 4.9047763 0.39339197)               (3.4483365 0.33150596 -3.7482951)               (-0.30670338 -1.6111823 -1.8651089)               (3.0621699 1.985337 2.9321134)               (-2.1715246 -0.23897576 -0.47158495)               (-1.015082 7.8423542 -0.83140832)               (-0.18916655 -0.49461161 0.58851908)
    0.084248673               (2.403909 -1.2197437 -4.1756301)               (-3.1122713 11.422229 -11.309657)               (-6.9072687 10.178196 11.661142)               (-8.5236465 10.313515 -2.5811205)               (9.4486209 10.821395 -1.2320524)               (-3.610504 11.023754 -2.4953834)               (0.771113 10.5949 11.183479)               (-3.5783999 2.8142189 1.0054908)               (5.5941105 10.085436 -4.7399305)               (-1.3794359 -3.0810639 -2.937004)               (0.5100617 6.5738736 1.8554536)               (-0.37559589 4.9309514 0.41856252)               (3.4738519 0.26829781 -3.6187962)               (-0.30297904 -1.606293 -1.8600174)               (3.061987 2.0281888 2.9253497)               (-2.1721291 -0.24877316 -0.44296495)               (-0.93468694 7.8858204 -0.84385202)               (-0.1986264 -0.49844968 0.59071193)
    0.084253412               (2.5263685 -1.016218 -4.2400556)               (-3.2199197 11.376272 -11.312558)               (-6.9187423 10.041213 11.653741)               (-8.6137586 10.712146 -2.7505659)               (9.4539251 10.594989 -1.2367651)               (-3.637215 10.916583 -2.6602988)               (0.86000741 10.659868 11.039685)               (-3.6530134 2.9090911 0.98711361)               (5.5671426 10.159758 -4.8124046)               (-1.3353898 -3.0515627 -2.9541647)               (0.51840995 6.669485 1.8578873)               (-0.2614536 4.9575391 0.4425916)               (3.4882391 0.19296607 -3.498856)               (-0.29939305 -1.6011111 -1.8550753)               (3.0620478 2.0717697 2.9172222)               (-2.1726333 -0.25890084 -0.41328684)               (-0.85064597 7.9295334 -0.85590288)               (-0.20840228 -0.50241441 0.59289967)
    0.084258322               (2.6206281 -0.81731206 -4.3375186)               (-3.3225334 11.332615 -11.323286)               (-6.9142059 9.8965037 11.65198)               (-8.7001738 11.10233 -2.8681988)               (9.4450735 10.350902 -1.2390955)               (-3.7008378 10.774088 -2.8522077)               (0.97087998 10.728354 10.876201)               (-3.7232819 3.022996 0.97013665)               (5.547246 10.268517 -4.8721073)               (-1.2929002 -3.0242992 -2.9702299)               (0.52835248 6.7766774 1.861329)               (-0.14157967 4.9842668 0.4692224)               (3.4901972 0.10502524 -3.3901555)               (-0.29592294 -1.5955976 -1.8502268)               (3.0622954 2.116493 2.9075291)               (-2.1730757 -0.26947107 -0.38217735)               (-0.76178415 7.9736766 -0.86742409)               (-0.218625 -0.50655327 0.59509461)
    0.084263427               (2.6773476 -0.67234787 -4.4723629)               (-3.4169489 11.293969 -11.341377)               (-6.8898908 9.7434802 11.654785)               (-8.7739387 11.475959 -2.9275511)               (9.4189917 10.092477 -1.2420689)               (-3.8082142 10.590001 -3.0728157)               (1.1017375 10.799289 10.700566)               (-3.7865771 3.1598785 0.95556044)               (5.5350618 10.413754 -4.9188668)               (-1.2516817 -2.9996474 -2.9849693)               (0.53940389 6.896775 1.8660804)               (-0.017400709 5.0111585 0.49630097)               (3.4780797 0.0046623768 -3.2957649)               (-0.29260027 -1.5897456 -1.8454608)               (3.062664 2.162415 2.8960899)               (-2.1734304 -0.28052529 -0.34944853)               (-0.66750389 8.0180511 -0.87820686)               (-0.22934335 -0.51089506 0.59730728)
    0.084268581               (2.6873969 -0.6277273 -4.6393399)               (-3.4971166 11.265348 -11.364811)               (-6.8439316 9.5872232 11.660883)               (-8.823554 11.817819 -2.9287033)               (9.3749892 9.8334122 -1.2492312)               (-3.9602307 10.365994 -3.3147951)               (1.2438017 10.869001 10.528045)               (-3.8391893 3.3187447 0.94522406)               (5.5312681 10.589984 -4.9521168)               (-1.2125713 -2.9785932 -2.9977559)               (0.55097568 7.0266482 1.8722865)               (0.1148041 5.0375862 0.52304691)               (3.4511877 -0.10438317 -3.2206003)               (-0.28951829 -1.5837285 -1.8408838)               (3.0630807 2.2080782 2.8831749)               (-2.1736063 -0.29183911 -0.31599568)               (-0.57045701 8.0610191 -0.88767582)               (-0.24027658 -0.51534121 0.59949976)
    0.084273765               (2.6478998 -0.70250765 -4.830171)               (-3.5606241 11.251144 -11.391255)               (-6.7759863 9.4299192 11.669027)               (-8.8431202 12.126581 -2.8778112)               (9.3141126 9.5818337 -1.2641726)               (-4.1562125 10.101985 -3.5742082)               (1.390974 10.9365 10.369729)               (-3.8790229 3.50012 0.94062322)               (5.535649 10.792119 -4.9733874)               (-1.1751257 -2.9612039 -3.0084536)               (0.56257013 7.1651728 1.8797949)               (0.2398306 5.0630184 0.54904647)               (3.4095426 -0.22083336 -3.165608)               (-0.28669666 -1.5776024 -1.8365249)               (3.0634486 2.2530418 2.86889)               (-2.1736353 -0.30337467 -0.28198761)               (-0.47105817 8.1019838 -0.8955213)               (-0.25137913 -0.51987258 0.60165711)
     0.08427898               (2.5615466 -0.88949994 -5.033306)               (-3.6066952 11.255586 -11.418543)               (-6.6867549 9.2735964 11.678109)               (-8.8304902 12.402919 -2.7823589)               (9.2389035 9.3439259 -1.2899045)               (-4.394059 9.7983986 -3.8471507)               (1.5353143 11.000629 10.232913)               (-3.9043468 3.7043275 0.94303813)               (5.5476795 11.014634 -4.9847931)               (-1.1386508 -2.9473276 -3.0170377)               (0.57291132 7.3115677 1.888714)               (0.36250897 5.0872628 0.57403703)               (3.3533405 -0.34411563 -3.1308584)               (-0.28415397 -1.5713925 -1.8323599)               (3.0636612 2.2971841 2.8532468)               (-2.1735803 -0.31513684 -0.24739896)               (-0.36931185 8.1406578 -0.90144755)               (-0.26265455 -0.52449202 0.603783)
    0.084284227               (2.4350382 -1.1585951 -5.2344847)               (-3.6360328 11.282138 -11.445014)               (-6.57778 9.1206973 11.687027)               (-8.786697 12.645866 -2.6529857)               (9.1531984 9.1241896 -1.3283826)               (-4.669422 9.457265 -4.1285497)               (1.6700378 11.060533 10.124036)               (-3.914518 3.9303743 0.95411513)               (5.5664851 11.251262 -4.988798)               (-1.1024547 -2.9366991 -3.0235324)               (0.58143884 7.4648497 1.8991049)               (0.48437853 5.1100538 0.59764604)               (3.2828907 -0.47369139 -3.115365)               (-0.28190802 -1.5651269 -1.8283842)               (3.0636148 2.340365 2.8362559)               (-2.1733496 -0.32714454 -0.2123161)               (-0.26531062 8.1766269 -0.90531094)               (-0.27410117 -0.52920566 0.60586889)
    0.084289507               (2.279139 -1.4662283 -5.419928)               (-3.6506647 11.332481 -11.469869)               (-6.4508984 8.9739593 11.694448)               (-8.7161393 12.852493 -2.5038454)               (9.0614078 8.9247695 -1.3802028)               (-4.97551 9.082609 -4.4123226)               (1.7893845 11.114894 10.04747)               (-3.9096393 4.1760996 0.97454658)               (5.5907789 11.495293 -4.9882838)               (-1.0658754 -2.9290099 -3.0280209)               (0.58763836 7.6238573 1.9113038)               (0.60569897 5.131337 0.61941091)               (3.1986366 -0.60875402 -3.1178521)               (-0.27996624 -1.5588379 -1.8245945)               (3.0631655 2.3824078 2.8179289)               (-2.172815 -0.33941987 -0.17672517)               (-0.15932736 8.2095026 -0.90677653)               (-0.28572035 -0.53401717 0.60791242)
    0.084294822               (2.1069697 -1.7693754 -5.5793476)               (-3.65344 11.405301 -11.493428)               (-6.3076277 8.8362574 11.698621)               (-8.6250371 13.020125 -2.3510523)               (8.9675223 8.745414 -1.4444245)               (-5.3033528 8.6809042 -4.6917165)               (1.8873528 11.159677 10.006599)               (-3.8889384 4.4379362 1.0062589)               (5.6188534 11.739955 -4.9864795)               (-1.0283267 -2.9238368 -3.0305947)               (0.59134474 7.7868691 1.9258985)               (0.72613415 5.1507212 0.63871416)               (3.1016574 -0.74834051 -3.1367526)               (-0.27833666 -1.5525603 -1.8209829)               (3.0622177 2.423152 2.7982899)               (-2.1721547 -0.35197843 -0.14066214)               (-0.052870821 8.2388988 -0.90564199)               (-0.29751027 -0.53892829 0.60991208)
    0.084300168               (1.9307898 -2.0377857 -5.707068)               (-3.6474436 11.494961 -11.517076)               (-6.1488693 8.7104639 11.697228)               (-8.5195424 13.148187 -2.2113666)               (8.8740382 8.5842989 -1.5185867)               (-5.6421275 8.2615333 -4.9593934)               (1.9603198 11.194836 10.000473)               (-3.8547476 4.7111502 1.0495035)               (5.6486004 11.978499 -4.9868647)               (-0.9893819 -2.9207398 -3.0313567)               (0.59164534 7.9522095 1.9433363)               (0.84524533 5.1683293 0.65481529)               (2.9932062 -0.89044044 -3.1703576)               (-0.27703282 -1.5463239 -1.8175406)               (3.0606445 2.4623885 2.777396)               (-2.1713718 -0.36483497 -0.10418201)               (0.059218356 8.2644366 -0.90174837)               (-0.30945959 -0.54393934 0.61186344)
     0.08430552               (1.7606188 -2.2594643 -5.8038957)               (-3.6354769 11.590252 -11.542902)               (-5.97557 8.5993625 11.687424)               (-8.4076287 13.238662 -2.1051865)               (8.7815655 8.4396801 -1.5985569)               (-5.9787868 7.8380261 -5.207048)               (2.005388 11.219844 10.026793)               (-3.8093281 4.9889264 1.104277)               (5.6776068 12.203856 -4.9927793)               (-0.94896545 -2.9192128 -3.0304395)               (0.58864209 8.117306 1.9641202)               (0.96221902 5.1835742 0.6667434)               (2.8757507 -1.0322134 -3.2170365)               (-0.2760723 -1.5401892 -1.814267)               (3.058353 2.4997582 2.7553977)               (-2.1706932 -0.37787704 -0.067456993)               (0.17260405 8.2855787 -0.89488968)               (-0.3215165 -0.54903021 0.61375916)