# Probe 0 (0 0.005 0)
# Probe 1 (-0.01 -0.005 0)
# Probe 2 (0.01 -0.005 0)
# Probe 3 (0 -0.005 0.01)
# Probe 4 (0 -0.005 -0.01)
# Probe 5 (-0.01 0.005 0)
# Probe 6 (0.01 0.005 0)
# Probe 7 (0 0.005 0.01)
# Probe 8 (0 0.005 -0.01)
# Probe 9 (-0.005 0.005 0)
# Probe 10 (0.005 0.005 0)
# Probe 11 (0 0.005 0.005)
# Probe 12 (0 0.005 -0.005)
# Probe 13 (-0.01 0.015 0)
# Probe 14 (0.01 0.015 0)
# Probe 15 (0 0.015 0.01)
# Probe 16 (0 0.015 -0.01)
# Probe 17 (0 0.015 0)
#         Probe               0               1               2               3               4               5               6               7               8               9              10              11              12              13              14              15              16              17
#          Time
  6.4614303e-06       100144.99        100167.9       100151.89       100148.13       100099.14       100154.08       100156.94       100151.08       100152.64       100151.85       100146.13       100148.76       100149.02       100144.53       100159.92       100151.89       100147.26       100144.78
  1.2932869e-05       100139.28        100162.5       100146.59       100142.64       100094.18       100148.41       100150.92       100145.36       100147.05       100146.56       100140.43       100143.02       100143.42          100139       100154.84       100145.66       100141.61       100139.24
  1.9380378e-05       100139.36       100162.88       100146.84       100142.86       100094.86       100148.37       100150.61       100145.23       100147.17       100146.95       100140.43       100143.07       100143.53       100139.17       100155.51       100145.34        100141.6       100139.52
  2.5807307e-05       100140.04       100163.86       100147.64        100143.7       100096.21       100148.92        100150.9        100145.6       100147.86        100147.9       100140.96        100143.7       100144.21       100139.91        100156.7       100145.45       100141.94       100140.44
   3.221547e-05       100140.74       100164.85       100148.37       100144.59       100097.64       100149.47       100151.26       100146.12       100148.65       100148.87       100141.43       100144.36       100144.87       100140.71       100157.94       100145.71       100142.27       100141.41
  3.8606349e-05       100141.37       100165.78       100149.02       100145.44       100099.11       100149.99       100151.62       100146.45       100149.37       100149.79       100141.76       100144.97       100145.47       100141.34       100159.07       100145.92        100142.4       100142.33
   4.498143e-05       100141.94       100166.63       100149.55       100146.26       100100.65       100150.42       100152.01       100146.74       100150.05       100150.64          100142       100145.54       100145.99       100141.98       100160.06          100146       100142.25        100143.2
  5.1342172e-05       100142.43       100167.42          100150       100147.04       100102.17        100150.8       100152.44       100146.95        100150.7       100151.43       100142.12       100146.03       100146.44       100142.54       100160.97       100146.14       100142.29       100144.01
  5.7689977e-05       100142.89       100168.17       100150.38        100147.8       100103.72       100151.17       100152.91       100146.95       100151.33       100152.18       100142.16        100146.5       100146.86       100143.08       100161.76       100146.19       100142.02       100144.78
  6.4026187e-05       100143.29       100168.87       100150.66        100148.5       100105.29       100151.48       100153.41       100146.94       100151.85        100152.9       100142.13       100146.94       100147.23       100143.57       100162.39        100146.3        100142.1       100145.51
  7.0352089e-05       100143.68       100169.58       100150.91        100149.2        100106.9       100151.82       100153.97       100147.25        100152.4       100153.59       100142.07       100147.39       100147.59       100144.06       100163.05       100146.37       100141.94       100146.24
  7.6668949e-05          100144       100170.23       100151.06       100149.85       100108.39       100152.11       100154.53       100147.22       100152.85       100154.22       100141.95       100147.75       100147.88       100144.52       100163.58       100146.38       100141.92        100146.9
  8.2978014e-05        100144.3       100170.87       100151.16       100150.46       100110.14       100152.48       100155.08       100147.19       100153.26       100154.83       100141.77       100148.12       100148.15       100144.92       100164.06        100146.5       100141.73       100147.55
  8.9280527e-05       100144.58       100171.48        100151.2       100151.03       100111.75       100152.77        100155.6       100147.05       100153.59       100155.43       100141.59       100148.47        100148.4       100145.31        100164.6       100146.57       100141.56       100148.19
  9.5577748e-05       100144.84       100172.06       100151.17       100151.55       100113.35       100153.11       100156.07       100147.14       100153.91          100156       100141.37       100148.83       100148.63       100145.69       100164.93       100146.67       100141.34       100148.79
  0.00010187093       100145.07        100172.6       100151.05       100152.04        100114.9       100153.46       100156.46       100147.28       100154.14       100156.54       100141.15       100149.13       100148.85       100146.04       100165.32       100146.76       100141.11       100149.36
  0.00010816135       100145.26       100173.09       100150.86       100152.47       100116.41       100153.71       100156.73       100147.41       100154.34       100157.03       100140.88       100149.44       100149.01       100146.41       100165.55       100146.82       100140.93       100149.89
  0.00011445032       100145.44       100173.56        100150.6       100152.89       100117.91       100154.02       100156.89       100147.54       100154.43       100157.51       100140.58       100149.69       100149.17        100146.7       100165.86       100146.89       100140.56       100150.39
  0.00012073916        100145.6       100173.98       100150.26        100153.3       100119.38        100154.3       100156.95       100147.78       100154.61       100157.95       100140.25       100149.94       100149.31       100146.99       100166.02       100146.96       100140.56       100150.86
  0.00012702924       100145.72       100174.36       100149.83       100153.68       100120.82       100154.53       100156.84       100148.04       100154.67       100158.35       100139.88        100150.1       100149.41       100147.25       100166.02       100147.11       100140.42       100151.29
  0.00013332195       100145.82        100174.7        100149.3       100154.05       100122.26       100154.73       100156.62       100148.28        100154.7       100158.72       100139.45       100150.41       100149.49       100147.54       100166.16       100147.16        100140.3       100151.67
  0.00013961868        100145.9       100175.03       100148.74       100154.41       100123.67       100154.91       100156.31       100148.81       100154.65       100159.06       100138.98       100150.61       100149.56       100147.75       100166.05       100147.22       100140.19       100152.01
  0.00014592084       100145.99       100175.34        100148.1        100154.8       100125.04       100155.06       100155.93       100149.35       100154.56       100159.37       100138.46       100150.76       100149.63       100148.03       100166.04       100147.32       100139.99       100152.34
  0.00015222982       100146.04       100175.63       100147.38       100155.18       100126.39       100155.18       100155.52       100149.84       100154.41       100159.64       100137.88       100150.92       100149.67       100148.27       100165.99       100147.28       100139.95       100152.64
  0.00015854698       100146.09        100175.9        100146.6       100155.59       100127.68        100155.3        100155.1       100150.44       100154.31       100159.89       100137.26        100151.1        100149.7       100148.49       100165.96       100147.37       100139.97        100152.9
  0.00016487363       100146.12       100176.16       100145.74          100156       100128.96       100155.35       100154.69          100151       100154.17       100160.08       100136.57       100151.23       100149.73       100148.65       100165.63       100147.44       100139.98       100153.14
  0.00017121105       100146.14        100176.4       100144.81       100156.45       100130.18       100155.45       100154.32       100151.49       100153.96       100160.26       100135.87       100151.36       100149.73       100148.83       100165.43       100147.49        100139.9       100153.36
  0.00017756043       100146.18       100176.64       100143.85       100156.94       100131.41       100155.41       100154.01       100152.09       100153.72       100160.41       100135.18       100151.53       100149.74       100149.03       100165.09        100147.6       100139.96       100153.57
  0.00018392286       100146.21       100176.88       100142.89       100157.44       100132.65       100155.63       100153.74        100152.5       100153.42       100160.54       100134.47       100151.65       100149.75       100149.19       100164.99       100147.69        100139.9       100153.79
  0.00019029934       100146.22       100177.08       100141.87       100157.97       100133.85        100155.8       100153.42       100152.88       100153.19       100160.63       100133.77       100151.72       100149.73       100149.31       100164.63       100147.98       100139.81       100153.96
  0.00019669077       100146.25       100177.31       100140.85       100158.53       100135.09       100156.01       100153.03       100153.32       100152.87        100160.7       100133.13       100151.86       100149.73       100149.33       100164.36       100148.08       100139.89       100154.15
  0.00020309789       100146.28       100177.51        100139.8       100159.09       100136.38       100156.23       100152.54       100153.64       100152.58       100160.75       100132.52       100151.91       100149.72       100149.44        100164.1       100148.04        100139.8       100154.31
  0.00020952131       100146.32        100177.7       100138.77       100159.68       100137.68        100156.5       100151.91       100153.98       100152.29        100160.8          100132       100152.05       100149.72       100149.47       100164.04       100148.37        100139.8       100154.49
  0.00021596142       100146.38        100177.9       100137.77       100160.26       100139.02       100156.81       100151.18        100154.3       100151.95       100160.83       100131.56       100152.16       100149.72       100149.47       100163.52        100148.7       100139.85       100154.67
   0.0002224185        100146.4       100178.05       100136.75       100160.78       100140.32        100157.1        100150.3       100154.56       100151.61       100160.82       100131.15       100152.23       100149.66       100149.46       100163.25       100148.87       100139.85       100154.81
  0.00022889261       100146.48       100178.23       100135.84        100161.3       100141.64       100157.45       100149.34       100154.84       100151.28       100160.85       100130.87       100152.35       100149.65       100149.48       100162.96       100149.49       100139.89       100154.98
  0.00023538356       100146.55       100178.41       100134.96       100161.81       100142.92       100157.81       100148.31       100155.05       100150.98       100160.86       100130.68       100152.44       100149.62       100149.51       100162.74       100149.24       100139.94       100155.14
    0.000241891       100146.65        100178.6       100134.17       100162.27       100144.14       100158.14       100147.18        100155.3       100150.64       100160.87        100130.6       100152.54        100149.6        100149.6       100162.55       100149.72       100140.15       100155.31
  0.00024841432       100146.74       100178.78       100133.43       100162.62       100145.29       100158.42       100145.93       100155.51       100150.34       100160.87       100130.59       100152.63       100149.56       100149.62       100162.34       100150.19       100140.28       100155.47
  0.00025495274       100146.88       100178.98       100132.82       100162.97       100146.39       100158.71       100144.63       100155.77       100150.05        100160.9       100130.69       100152.74       100149.54       100149.74       100162.27       100150.67        100140.5       100155.64
  0.00026150526       100146.99       100179.18       100132.27       100163.23       100147.42       100158.99       100143.16       100155.97       100149.74       100160.91       100130.83       100152.82       100149.49        100149.8       100162.15       100151.18        100140.8       100155.79
   0.0002680707       100147.14       100179.38       100131.79       100163.39       100148.42       100159.15       100141.59       100156.15       100149.43       100160.93       100131.04       100152.92       100149.45       100149.94        100162.1       100151.75       100141.13       100155.97
  0.00027464772        100147.3        100179.6       100131.47       100163.54       100149.38       100159.31       100139.88       100156.38       100149.15       100160.93       100131.28       100153.04       100149.43       100150.13       100162.08        100152.3       100141.52       100156.13
  0.00028123481       100147.46       100179.81       100131.16        100163.7       100150.31       100159.43       100138.01       100156.54       100148.85       100160.94       100131.55       100153.13       100149.37       100150.24       100162.06       100152.95       100141.93        100156.3
  0.00028783035       100147.64       100180.03       100130.96       100163.74       100151.26       100159.52       100136.19        100156.8       100148.55       100160.93       100131.85       100153.24       100149.33        100150.4       100162.19       100153.56       100142.35       100156.48
   0.0002944326       100147.82       100180.24       100130.76       100163.77       100152.19       100159.67       100134.42          100157       100148.26       100160.93       100132.16       100153.35       100149.29        100150.6       100162.35       100154.24       100142.92       100156.65
  0.00030103975       100148.03       100180.48        100130.6       100163.83       100153.16       100159.75       100132.79       100157.25       100147.97       100160.94        100132.5       100153.46       100149.26       100150.77       100162.53       100154.96       100143.44       100156.85
  0.00030764994       100148.24        100180.7       100130.44       100163.87       100154.13       100159.78       100131.38       100157.52       100147.66       100160.94       100132.81       100153.57       100149.21       100151.06       100162.77       100155.66          100144       100157.02
  0.00031426129       100148.45       100180.94       100130.16       100163.86       100155.11       100159.81       100130.34       100157.78       100147.33       100160.93       100133.12       100153.67       100149.18       100151.26       100163.02       100156.42       100144.59       100157.21
  0.00032087193       100148.67       100181.16       100129.81       100163.88       100156.08       100159.79       100129.82       100158.07       100147.05       100160.92       100133.43       100153.77       100149.13       100151.51       100163.28       100157.18       100145.14       100157.39
  0.00032748002        100148.9       100181.39       100129.38       100163.86       100157.07       100159.71       100129.88       100158.27       100146.71       100160.92       100133.72        100153.9        100149.1       100151.73       100163.68       100157.92       100145.74       100157.58
  0.00033408379       100149.15       100181.61       100128.84       100163.83       100158.05       100159.63       100130.51       100158.71       100146.44       100160.93       100134.02       100154.02        100149.1       100152.01       100164.01       100158.74       100146.37       100157.78
  0.00034068152       100149.39       100181.81       100128.27       100163.72          100159       100159.57       100131.53       100158.97       100146.14       100160.93       100134.27       100154.13       100149.05       100152.26       100164.39       100159.53       100146.96       100157.96
   0.0003472716       100149.63          100182       100127.78       100163.61       100159.96       100159.45       100132.75       100159.33       100145.93       100160.93       100134.49       100154.23       100149.04       100152.51       100164.78       100160.31        100147.6       100158.16
  0.00035385253       100149.89       100182.16       100127.37       100163.46       100160.88       100159.46       100134.02       100159.67       100145.66       100160.95       100134.73       100154.35       100149.06       100152.78       100165.15       100161.09        100148.2       100158.35
  0.00036042293       100150.13       100182.28       100127.08       100163.21       100161.76        100159.3       100135.17       100159.97       100145.61       100160.96       100134.93       100154.45       100149.06       100153.05       100165.54       100161.89        100148.8       100158.52
  0.00036698157       100150.39       100182.37       100126.89       100162.94        100162.6        100159.3       100136.07       100160.33       100145.38       100160.98       100135.12       100154.56       100149.07        100153.3       100165.96       100162.65       100149.37       100158.72
  0.00037352737       100150.63       100182.41       100126.76       100162.58       100163.39       100159.22        100136.6       100160.64       100145.22       100161.02       100135.28       100154.66        100149.1       100153.57       100166.31       100163.42          100150        100158.9
  0.00038005941       100150.89       100182.41       100126.72       100162.18       100164.13       100159.24       100136.75          100161        100145.2       100161.06       100135.42       100154.75       100149.14       100153.82       100166.69       100164.17        100150.6       100159.07
  0.00038657696       100151.16       100182.38        100126.8       100161.72       100164.84       100159.35        100136.6       100161.37       100145.14       100161.13       100135.57       100154.88       100149.21       100154.09       100167.06       100164.91       100151.22       100159.27
  0.00039307948       100151.41       100182.28       100126.99       100161.15       100165.49       100159.55       100136.17       100161.93       100145.08       100161.19       100135.69       100154.98       100149.29       100154.33        100167.4        100165.6        100151.8       100159.44
  0.00039956662       100151.67       100182.15       100127.29       100160.55       100166.11       100159.74        100135.6        100162.2       100145.11       100161.26       100135.81        100155.1       100149.37       100154.53       100167.72       100166.34       100152.39       100159.62
  0.00040603825       100151.94       100181.96       100127.66       100159.84       100166.68          100160       100134.92       100162.72       100145.12       100161.33       100135.93       100155.22       100149.47       100154.73       100168.05       100167.01          100153       100159.79
  0.00041249448       100152.19       100181.75       100128.02       100159.07       100167.17       100160.28       100134.12       100162.99       100145.16       100161.39       100136.01       100155.32       100149.56       100154.95       100168.34       100167.65       100153.59       100159.94
  0.00041893564       100152.42       100181.48       100128.35       100158.24        100167.6       100160.51       100133.35        100163.4       100145.28       100161.41       100136.09        100155.4       100149.65       100155.14       100168.63       100168.26       100154.18       100160.07
  0.00042536232       100152.67       100181.22       100128.68       100157.38       100167.95       100160.77       100132.69       100163.81       100145.38       100161.45       100136.17       100155.53       100149.76       100155.27        100168.9       100168.83       100154.71       100160.24
   0.0004317754       100152.93       100180.92       100129.01       100156.56       100168.23        100161.1       100132.25       100164.24       100145.55       100161.46       100136.25       100155.65       100149.88       100155.43       100169.15        100169.4       100155.29        100160.4
  0.00043817603       100153.18       100180.61       100129.34       100155.72       100168.41       100161.39       100132.16       100164.69       100145.71       100161.46       100136.33       100155.77       100150.01       100155.59       100169.41       100169.93       100155.83       100160.57
  0.00044456566        100153.4       100180.24       100129.65       100154.98        100168.5       100161.64       100132.44       100165.11       100145.88       100161.42       100136.38       100155.86        100150.1        100155.7       100169.63        100170.4       100156.32        100160.7
  0.00045094604       100153.65       100179.87       100129.88       100154.29       100168.49       100161.92       100133.15       100165.57       100146.09       100161.38       100136.46       100155.99       100150.24       100155.83       100169.83       100170.82       100156.78       100160.84
  0.00045731924       100153.89       100179.43       100129.99       100153.98       100168.39       100162.13       100134.21       100165.97       100146.27       100161.31       100136.54       100156.11       100150.38       100155.95       100170.04       100171.23       100157.28       100160.98
  0.00046368759       100154.12       100178.96       100130.03       100153.75       100168.19       100162.28        100135.5       100166.43       100146.54       100161.23        100136.6       100156.23       100150.52       100156.04       100170.23       100171.53       100157.72       100161.13
  0.00047005368       100154.34       100178.42          100130       100153.68       100167.91       100162.35       100136.91       100166.83        100146.8       100161.12       100136.65       100156.35       100150.66       100156.11        100170.4       100171.79       100158.13       100161.28
  0.00047642035       100154.56       100177.83       100130.02       100153.69       100167.57       100162.42        100138.3       100167.23       100147.05       100161.02        100136.7       100156.47       100150.81        100156.2       100170.55       100171.98       100158.51        100161.4
  0.00048279055       100154.78       100177.21       100130.08       100153.75       100167.18        100162.4       100139.56       100167.59       100147.31       100160.93       100136.77       100156.58       100150.97       100156.31       100170.69       100172.18       100158.89       100161.54
  0.00048916733          100155       100176.55        100130.1       100153.83       100166.77       100162.39       100140.59       100167.96       100147.57       100160.87       100136.82       100156.72       100151.13       100156.42       100170.79       100172.32       100159.23       100161.64
  0.00049555367       100155.24       100175.89       100130.34       100153.97       100166.35       100162.34       100141.37       100168.34        100147.9       100160.84        100136.9       100156.88       100151.34       100156.55       100170.92        100172.5       100159.62       100161.79
   0.0005019524       100155.45       100175.16       100130.26       100154.16       100165.88       100162.24       100141.84       100168.66       100148.22       100160.83       100136.95       100157.02       100151.53       100156.69       100170.99       100172.67       100159.93       100161.92
  0.00050836607       100155.66       100174.41       100129.87       100154.44        100165.4       100162.21       100142.02       100168.95       100148.48       100160.82       100137.01       100157.15       100151.73       100156.83       100171.06       100172.87       100160.25       100162.03
  0.00051479681       100155.85       100173.62       100129.02       100154.81        100164.9       100162.14       100141.85       100169.16       100148.82       100160.85       100137.05       100157.32       100151.92       100156.98        100171.1       100173.14        100160.5       100162.14
  0.00052124623       100156.06        100172.8       100127.77        100155.3       100164.34        100162.1       100141.35       100169.33       100149.16       100160.89        100137.1       100157.45       100152.12       100157.13       100171.17       100173.41       100160.83       100162.25
  0.00052771531       100156.24       100171.94       100126.19       100155.91       100163.77       100162.15       100140.49       100169.46       100149.44       100160.96       100137.14       100157.59       100152.32       100157.34       100171.17       100173.74        100161.1       100162.34
  0.00053420442       100156.44       100171.04       100124.48       100156.65       100163.15       100162.16       100139.35       100169.57       100149.81       100161.05       100137.18       100157.76       100152.54       100157.47       100171.18       100174.03       100161.35       100162.44
  0.00054071328       100156.61       100170.12        100122.8       100157.54       100162.51       100162.35       100137.94       100169.63       100150.15       100161.16       100137.22        100157.9       100152.74       100157.66       100171.16       100174.42       100161.54       100162.53
  0.00054724104       100156.81        100169.2       100121.42       100158.57       100161.88       100162.65       100136.46       100169.68        100150.5       100161.31       100137.29       100158.09       100152.98       100157.84       100171.15       100174.76       100161.76       100162.63
   0.0005537864       100156.99       100168.22       100120.57       100159.71       100161.18       100162.83       100134.88       100169.67       100150.87       100161.46       100137.34       100158.26       100153.19       100158.03       100171.13       100175.07       100161.94       100162.72
  0.00056034775       100157.16       100167.24       100120.27       100160.96       100160.47       100163.16       100133.33       100169.67       100151.23       100161.64       100137.39       100158.43       100153.37       100158.23       100171.08       100175.41       100162.12       100162.79
  0.00056692332       100157.32       100166.25       100120.73        100162.3       100159.81        100163.5        100131.9       100169.64       100151.64       100161.81       100137.42       100158.59       100153.57       100158.43       100171.01       100175.73       100162.23       100162.85
  0.00057351135        100157.5       100165.27       100121.75       100163.71       100159.13          100164       100130.65       100169.64       100152.05       100162.04       100137.49       100158.78       100153.78       100158.65       100170.94          100176       100162.33       100162.92
  0.00058011024       100157.66       100164.27       100123.16       100165.14       100158.47       100164.44       100129.56       100169.66       100152.47       100162.23       100137.56       100158.96       100153.97       100158.86       100170.87       100176.31        100162.4       100162.99
   0.0005867186       100157.84       100163.31       100124.79       100166.52       100157.86       100164.92        100128.7       100169.66       100152.94       100162.45       100137.63       100159.14       100154.16       100159.11       100170.79       100176.63       100162.45       100163.05
  0.00059333535       100157.99       100162.37        100126.5       100167.83       100157.31       100165.47       100128.04       100169.67       100153.35       100162.66       100137.69        100159.3       100154.34       100159.36        100170.7       100176.94       100162.47       100163.12
  0.00059995972       100158.15       100161.44       100128.27       100169.03       100156.77       100166.01       100127.63       100169.68        100153.8       100162.88       100137.77       100159.53       100154.52       100159.61        100170.6       100177.24       100162.45       100163.19
  0.00060659132        100158.3       100160.51       100130.02       100170.05       100156.32       100166.62       100127.43       100169.71       100154.22       100163.09       100137.83       100159.72       100154.69       100159.84       100170.49       100177.53       100162.39       100163.25
  0.00061323004       100158.42       100159.45       100131.76       100170.84       100155.91       100167.22       100127.44       100169.82       100154.69       100163.28       100137.87       100159.92       100154.83       100160.13       100170.34       100177.75       100162.28       100163.28
  0.00061987608       100158.55       100158.18       100133.49       100171.36       100155.58       100167.87       100127.65       100169.85       100155.01       100163.45       100137.94        100160.1       100154.98       100160.39       100170.22       100177.99       100162.16       100163.32