# Probe 0 (0 0.005 0)
# Probe 1 (-0.01 -0.005 0)
# Probe 2 (0.01 -0.005 0)
# Probe 3 (0 -0.005 0.01)
# Probe 4 (0 -0.005 -0.01)
# Probe 5 (-0.01 0.005 0)
# Probe 6 (0.01 0.005 0)
# Probe 7 (0 0.005 0.01)
# Probe 8 (0 0.005 -0.01)
# Probe 9 (-0.005 0.005 0)
# Probe 10 (0.005 0.005 0)
# Probe 11 (0 0.005 0.005)
# Probe 12 (0 0.005 -0.005)
# Probe 13 (-0.01 0.015 0)
# Probe 14 (0.01 0.015 0)
# Probe 15 (0 0.015 0.01)
# Probe 16 (0 0.015 -0.01)
# Probe 17 (0 0.015 0)
#         Probe               0               1               2               3               4               5               6               7               8               9              10              11              12              13              14              15              16              17
#          Time
  6.4614303e-06               (0.42640075 -5.0308751 -0.32332178)               (-3.3095053 0.99228636 -5.8946504)               (1.3879572 4.6527611 1.1990647)               (-1.1112411 5.1690198 0.47794185)               (0.38063522 0.2926863 -2.5014669)               (-1.3947201 5.7846383 -3.0633662)               (-2.4358473 4.0780353 8.3051237)               (-6.5696742 2.1275153 0.16968161)               (10.398201 4.1698883 0.37798265)               (-1.6597417 -0.067190618 -0.2445283)               (-1.6471834 2.2201556 4.3649056)               (-2.3209892 -2.1244057 0.12070569)               (4.2282405 1.5482993 1.6746528)               (1.9657035 -0.10460062 -0.20778326)               (3.720278 -1.5936147 7.5078618)               (-2.0433508 -0.91850156 -3.3726116)               (8.0165152 0.023615253 -0.78329165)               (-2.914225 -0.63402098 -0.19016582)
  1.2932869e-05               (0.45020041 -4.9317543 -0.34960182)               (-3.1582376 0.99184265 -5.9989017)               (1.3838645 4.5764291 1.3885352)               (-1.1160094 5.1503853 0.42418046)               (0.42298392 0.22339869 -2.6259714)               (-1.4810873 5.6637919 -3.0685047)               (-2.5268543 4.2955703 8.1156161)               (-6.857176 1.9340625 0.21705322)               (10.286982 4.3626408 0.40795828)               (-1.6716826 -0.079003485 -0.26838476)               (-1.781696 2.2568341 4.4450879)               (-2.1949533 -2.1164528 0.10714036)               (4.2214368 1.6086015 1.697629)               (1.9177419 -0.13151697 -0.18856143)               (3.7584572 -1.6394407 7.4550374)               (-1.9636864 -1.0176648 -3.3100201)               (8.27894 0.069804803 -0.87061319)               (-3.0123889 -0.62425434 -0.15712395)
  1.9380378e-05               (0.46873396 -4.8372535 -0.37995328)               (-3.0384265 0.97885328 -6.0952429)               (1.3848373 4.4923952 1.601106)               (-1.1403389 5.1262932 0.37369422)               (0.44717375 0.18832685 -2.7526698)               (-1.5666814 5.5378279 -3.083428)               (-2.6861493 4.5167433 7.904192)               (-7.1084614 1.6253625 0.27653564)               (10.121496 4.5814402 0.41397134)               (-1.6823644 -0.092392129 -0.29709929)               (-1.962328 2.2756644 4.5011374)               (-2.0702357 -2.1119426 0.092358914)               (4.2160225 1.6673689 1.7239614)               (1.8702412 -0.16197117 -0.17038957)               (3.7890074 -1.6829782 7.3854847)               (-1.8893868 -1.1173378 -3.2454503)               (8.5376232 0.18686161 -1.0233965)               (-3.1133818 -0.61054455 -0.1216552)
  2.5807307e-05               (0.48174434 -4.7476421 -0.41410978)               (-2.9519706 0.9663919 -6.1804463)               (1.3853521 4.4053865 1.8291169)               (-1.1847668 5.0961194 0.3252427)               (0.45537621 0.18277863 -2.8830233)               (-1.651643 5.4062575 -3.1084804)               (-2.9334875 4.7234542 7.6634628)               (-7.311307 1.2132966 0.34527662)               (9.9226561 4.8066029 0.39305106)               (-1.6914385 -0.10716823 -0.33064077)               (-2.1850571 2.279327 4.5325988)               (-1.9468914 -2.1103173 0.076461011)               (4.2111387 1.7240163 1.753141)               (1.8243128 -0.19558629 -0.15433016)               (3.8153076 -1.7241292 7.299108)               (-1.8201467 -1.2166337 -3.1792787)               (8.7738445 0.37375158 -1.2195209)               (-3.217392 -0.59052889 -0.082734096)
   3.221547e-05               (0.48903241 -4.6631122 -0.45167219)               (-2.894749 0.96758654 -6.2531961)               (1.3784712 4.3195241 2.0631542)               (-1.2493395 5.0594488 0.27781013)               (0.44754051 0.20476767 -3.0167474)               (-1.7361618 5.2689209 -3.143903)               (-3.2752618 4.9010436 7.3912049)               (-7.4625327 0.72160837 0.41570152)               (9.7091659 5.0247798 0.34981773)               (-1.6986393 -0.12311666 -0.36898912)               (-2.4426169 2.2726751 4.5396958)               (-1.8259751 -2.1125956 0.060033097)               (4.2063031 1.7781227 1.7852386)               (1.7802153 -0.23173105 -0.13926901)               (3.8414116 -1.75995 7.198353)               (-1.7563345 -1.3147449 -3.1111321)               (8.9679892 0.62443705 -1.4190879)               (-3.3245418 -0.56143505 -0.039362623)
  3.8606349e-05               (0.49051114 -4.5837763 -0.49247151)               (-2.857988 0.99425048 -6.313992)               (1.3571524 4.2383198 2.2930465)               (-1.3333685 5.0159176 0.23057483)               (0.42495026 0.25321293 -3.1547214)               (-1.8200632 5.1254456 -3.190057)               (-3.7025552 5.0405004 7.0912333)               (-7.5576472 0.1855611 0.47999237)               (9.494608 5.2280349 0.29462307)               (-1.7035674 -0.14015348 -0.41208905)               (-2.7253789 2.2621465 4.5235674)               (-1.7080876 -2.1185686 0.042990347)               (4.2011115 1.8294935 1.8203204)               (1.7382364 -0.26944453 -0.12530016)               (3.8719454 -1.7851001 7.0867551)               (-1.6966821 -1.4115647 -3.041714)               (9.1090468 0.9296472 -1.5755195)               (-3.4344403 -0.52032488 0.0088649538)
   4.498143e-05               (0.48601159 -4.5096818 -0.53582358)               (-2.8307826 1.0547051 -6.3647253)               (1.3157038 4.1645829 2.5079571)               (-1.435213 4.9655285 0.18276047)               (0.38847185 0.32648935 -3.2971658)               (-1.9035866 4.9752698 -3.2473884)               (-4.1932663 5.1390413 6.7727656)               (-7.5983272 -0.35500209 0.53317591)               (9.2860073 5.4121193 0.23922085)               (-1.7060157 -0.15820929 -0.45998631)               (-3.022913 2.2551115 4.4857895)               (-1.5920973 -2.126914 0.025417819)               (4.1949987 1.87757 1.8583143)               (1.6979436 -0.309178 -0.11212158)               (3.9122616 -1.7932893 6.9678529)               (-1.6420713 -1.5058739 -2.9709917)               (9.1900808 1.2808581 -1.6475372)               (-3.5466291 -0.46431568 0.061654371)
  5.1342172e-05               (0.47555943 -4.4407114 -0.58159397)               (-2.8028432 1.1520348 -6.407868)               (1.251292 4.1003939 2.6969148)               (-1.552183 4.9087514 0.1337046)               (0.33866276 0.42377167 -3.4444501)               (-1.9867524 4.8178979 -3.3162698)               (-4.7172285 5.1990354 6.4488691)               (-7.5960936 -0.86032485 0.57018258)               (9.0845717 5.5748513 0.19291522)               (-1.7055797 -0.1772582 -0.51277208)               (-3.3247187 2.258816 4.4283828)               (-1.478878 -2.1382343 0.0073739604)               (4.1877077 1.922134 1.8993203)               (1.6603264 -0.35059073 -0.10021708)               (3.9663079 -1.7786105 6.8479256)               (-1.5914685 -1.5977081 -2.8987463)               (9.2197693 1.6690825 -1.6098642)               (-3.6599877 -0.39136871 0.11794919)
  5.7689977e-05               (0.45921636 -4.3766916 -0.62912025)               (-2.7666278 1.2833231 -6.4457724)               (1.1652582 4.0470395 2.8495324)               (-1.6803996 4.8466966 0.082849685)               (0.27493113 0.54283709 -3.5967039)               (-2.0697766 4.652646 -3.3973226)               (-5.2422658 5.2261887 6.1342661)               (-7.5684011 -1.2950949 0.5932669)               (8.8872865 5.7146927 0.16169814)               (-1.7020685 -0.19726832 -0.57040522)               (-3.6212816 2.2798328 4.354007)               (-1.3689585 -2.1512061 -0.011325533)               (4.1788292 1.9630132 1.9434096)               (1.624999 -0.39341205 -0.089304358)               (4.035989 -1.7371911 6.7321428)               (-1.5441925 -1.6866321 -2.825715)               (9.2074283 2.0866058 -1.4588337)               (-3.7732072 -0.30085304 0.1758487)
  6.4026187e-05               (0.4373825 -4.3173605 -0.67822678)               (-2.7186908 1.4400603 -6.4801375)               (1.0632534 4.0048768 2.9567708)               (-1.8147575 4.7811769 0.029743739)               (0.19986033 0.68110462 -3.7538594)               (-2.1523812 4.4790255 -3.49099)               (-5.7390743 5.2274641 5.8435529)               (-7.5314535 -1.6374692 0.60817854)               (8.6897262 5.8303416 0.14805131)               (-1.6951355 -0.21828535 -0.632979)               (-3.9046667 2.323603 4.2654798)               (-1.2624569 -2.1662406 -0.030418143)               (4.1679454 1.9998474 1.9905926)               (1.5919683 -0.43740319 -0.079145471)               (4.1218584 -1.6677828 6.6254324)               (-1.5004728 -1.7721714 -2.7517362)               (9.1651854 2.5216632 -1.2135167)               (-3.8847479 -0.19445019 0.2327127)
  7.0352089e-05               (0.4098678 -4.2623922 -0.72856283)               (-2.659637 1.6096687 -6.5120513)               (0.95435178 3.9734858 3.0118613)               (-1.949023 4.7148281 -0.025935504)               (0.11512396 0.83471103 -3.9157101)               (-2.2356092 4.2958413 -3.5982804)               (-6.1839138 5.2096521 5.5900819)               (-7.5021949 -1.8736316 0.62162115)               (8.4876463 5.9208673 0.15151756)               (-1.6846319 -0.2403489 -0.70049773)               (-4.1689985 2.3939888 4.1659431)               (-1.1591497 -2.1833273 -0.049990658)               (4.1547213 2.0324312 2.040843)               (1.5612179 -0.48286991 -0.069514007)               (4.2210825 -1.5745519 6.5326537)               (-1.4595016 -1.8539101 -2.6771955)               (9.1139311 2.9621588 -0.90771969)               (-3.9928438 -0.07669748 0.28550275)
  7.6668949e-05               (0.37707306 -4.2113592 -0.77981139)               (-2.5931698 1.7777235 -6.5423448)               (0.84938622 3.951689 3.0110313)               (-2.0761118 4.6510155 -0.084326065)               (0.021563995 1.0010134 -4.0820046)               (-2.3185227 4.1027067 -3.7195659)               (-6.5595811 5.1785136 5.3853641)               (-7.4928645 -2.0013612 0.64048278)               (8.2781606 5.9854889 0.17065476)               (-1.6705028 -0.26365017 -0.7728969)               (-4.4108066 2.4929828 4.0581625)               (-1.0588839 -2.2023968 -0.069864071)               (4.1387881 2.060659 2.0942085)               (1.5324812 -0.52929103 -0.060303861)               (4.3282794 -1.4653987 6.4570084)               (-1.4210667 -1.9316614 -2.6019924)               (9.0688158 3.394847 -0.58416185)               (-4.0955878 0.044775784 0.33104629)
  8.2978014e-05               (0.33923109 -4.1638138 -0.83151942)               (-2.524402 1.930477 -6.5718364)               (0.75858963 3.9373003 2.9539014)               (-2.1885556 4.5936028 -0.14527489)               (-0.075799996 1.1777228 -4.2523191)               (-2.402895 3.8983758 -3.8551961)               (-6.8549031 5.1384724 5.2388605)               (-7.5133769 -2.029996 0.66954625)               (8.0608195 6.0245517 0.20356027)               (-1.6528147 -0.28835289 -0.85014206)               (-4.6287841 2.6208758 3.9451347)               (-0.96167551 -2.2226357 -0.090201724)               (4.1198071 2.0843695 2.1505916)               (1.5051365 -0.576752 -0.051375138)               (4.4360481 -1.3520708 6.4005148)               (-1.3846439 -2.0049963 -2.5261028)               (9.0417838 3.8045179 -0.28354968)               (-4.1912246 0.15971855 0.36628243)
  8.9280527e-05               (0.29664709 -4.1192652 -0.88342104)               (-2.4581864 2.0570168 -6.601222)               (0.68951735 3.9275345 2.8435814)               (-2.2790859 4.5465165 -0.20820961)               (-0.17524824 1.3628357 -4.4263949)               (-2.4880181 3.6823743 -4.0058596)               (-7.0639717 5.092785 5.1578406)               (-7.5643377 -1.9822802 0.71116701)               (7.8369166 6.0392644 0.24786368)               (-1.631623 -0.31475282 -0.93223733)               (-4.8238352 2.7757162 3.8292311)               (-0.8676845 -2.2438437 -0.11089086)               (4.0974022 2.103415 2.2100272)               (1.4784492 -0.6253011 -0.042589061)               (4.5356165 -1.2476424 6.3632059)               (-1.349512 -2.0738432 -2.4500525)               (9.0422864 4.1783985 -0.041049262)               (-4.2783855 0.25643676 0.38878788)
  9.5577748e-05               (0.24964606 -4.0771954 -0.93518235)               (-2.3978918 2.1507134 -6.6309028)               (0.6459322 3.9186793 2.6859588)               (-2.3415227 4.5132336 -0.27200616)               (-0.2745928 1.5527848 -4.6032201)               (-2.5740103 3.4540319 -4.1715874)               (-7.1852216 5.043704 5.1472528)               (-7.6340652 -1.8871088 0.76328305)               (7.6094147 6.0321905 0.300788)               (-1.607182 -0.34329174 -1.0190956)               (-4.9985246 2.9540211 3.7124156)               (-0.77675234 -2.2659145 -0.13183745)               (4.0713215 2.1176485 2.2723692)               (1.4526625 -0.67464143 -0.034546281)               (4.6182426 -1.1645772 6.3437745)               (-1.3151402 -2.1380093 -2.3733464)               (9.0749458 4.5052536 0.11659715)               (-4.3560846 0.32323977 0.3969409)
  0.00010187093               (0.19857535 -4.0370893 -0.986529)               (-2.3449314 2.2094125 -6.6608354)               (0.62772439 3.9068445 2.4889548)               (-2.3714254 4.4959848 -0.33491166)               (-0.37134809 1.7451568 -4.7832467)               (-2.6616084 3.2126299 -4.3523569)               (-7.2208355 4.9927524 5.2095123)               (-7.7213503 -1.7730515 0.82087115)               (7.380448 6.0060771 0.35994246)               (-1.5799925 -0.37450472 -1.1106432)               (-5.1567833 3.1504987 3.596569)               (-0.6893974 -2.2887904 -0.15308886)               (4.0411856 2.1270048 2.3375278)               (1.4272783 -0.72466855 -0.027762395)               (4.6756094 -1.1128592 6.3407773)               (-1.2815062 -2.1972492 -2.2958481)               (9.1404679 4.7783371 0.17183344)               (-4.4236202 0.35054896 0.39005854)
  0.00010816135               (0.14382421 -3.9983852 -1.0372125)               (-2.2989955 2.2346046 -6.690626)               (0.63178041 3.8880833 2.2615542)               (-2.3668557 4.4953091 -0.39457528)               (-0.4627529 1.9378739 -4.9667193)               (-2.750751 2.9577892 -4.5474977)               (-7.1762642 4.9408245 5.3442271)               (-7.8151421 -1.670635 0.87755258)               (7.1534374 5.9650407 0.42374363)               (-1.550606 -0.4090992 -1.2068606)               (-5.3030195 3.3583119 3.4830143)               (-0.6050945 -2.3121338 -0.17464781)               (4.0067026 2.1314725 2.4053743)               (1.4016685 -0.77589641 -0.021390796)               (4.7021247 -1.0972766 6.3503786)               (-1.2476038 -2.2513369 -2.217581)               (9.2366188 4.9945781 0.11776952)               (-4.4806366 0.33265152 0.36889325)
  0.00011445032               (0.085741814 -3.9605565 -1.0870124)               (-2.2587319 2.2298074 -6.7198525)               (0.65313051 3.8590972 2.0129574)               (-2.328741 4.5096857 -0.44815099)               (-0.54575806 2.1293125 -5.1542186)               (-2.8415131 2.6892968 -4.7563792)               (-7.0599051 4.8883817 5.5477803)               (-7.8978033 -1.604195 0.92499873)               (6.9293769 5.9129509 0.48700854)               (-1.5199016 -0.44792192 -1.3076798)               (-5.4417404 3.569659 3.3728436)               (-0.52335744 -2.3354747 -0.1964702)               (3.9676296 2.1310993 2.4757451)               (1.3758694 -0.82819404 -0.015237691)               (4.6948891 -1.1182443 6.3691885)               (-1.2130231 -2.3004789 -2.1380779)               (9.3604415 5.1554119 -0.039915706)               (-4.5271826 0.26908227 0.33498906)
  0.00012073916               (0.024729257 -3.9230607 -1.135747)               (-2.2224061 2.1990618 -6.748473)               (0.68631841 3.8172505 1.7518538)               (-2.2606964 4.5357989 -0.49267626)               (-0.61722663 2.3178299 -5.3463407)               (-2.9337241 2.407397 -4.9771798)               (-6.8828164 4.8355332 5.8129787)               (-7.9539572 -1.5898628 0.95852181)               (6.7093775 5.8541983 0.54865823)               (-1.4889386 -0.49204391 -1.4129263)               (-5.57663 3.7761728 3.2671736)               (-0.44435488 -2.3587495 -0.21858529)               (3.9236747 2.12582 2.5484842)               (1.3496987 -0.88085266 -0.010017888)               (4.6534508 -1.1693119 6.3938277)               (-1.1768615 -2.3445625 -2.0564724)               (9.5072464 5.2661165 -0.28395971)               (-4.5636177 0.16511853 0.29100745)
  0.00012702924               (-0.03881866 -3.8853826 -1.1832749)               (-2.1883485 2.1461057 -6.7769695)               (0.72619642 3.7611381 1.4859874)               (-2.1684858 4.5691117 -0.52550286)               (-0.67394227 2.5019281 -5.5437539)               (-3.0272466 2.1133099 -5.2078902)               (-6.6585462 4.7822559 6.1286579)               (-7.9739126 -1.6323561 0.97520185)               (6.4952921 5.7934228 0.60567239)               (-1.4589956 -0.54261864 -1.5224296)               (-5.709902 3.969556 3.1670775)               (-0.36791556 -2.3819119 -0.24098881)               (3.8746336 2.1155499 2.6234093)               (1.3229462 -0.93383383 -0.0049761597)               (4.5820941 -1.2393088 6.4194087)               (-1.1395249 -2.3832695 -1.9727978)               (9.6727822 5.3360821 -0.58340811)               (-4.5907922 0.030701485 0.24006294)
  0.00013332195               (-0.10453117 -3.8470214 -1.2294557)               (-2.1551721 2.0743886 -6.8061116)               (0.76879076 3.6900358 1.2215271)               (-2.0592345 4.6046982 -0.54477928)               (-0.71255631 2.6798649 -5.7471933)               (-3.1214019 1.8084438 -5.4461567)               (-6.4030198 4.7286689 6.4794903)               (-7.951086 -1.7248667 0.9747634)               (6.2869519 5.7347398 0.65512968)               (-1.4315331 -0.60090986 -1.635877)               (-5.841735 4.1424735 3.0740536)               (-0.2957753 -2.4045686 -0.26370049)               (3.8203706 2.1004851 2.7002338)               (1.2955176 -0.98813606 0.00035708421)               (4.4887847 -1.3147834 6.4431442)               (-1.1003243 -2.4172234 -1.8864598)               (9.8531912 5.3784224 -0.89727032)               (-4.6098611 -0.12154969 0.18530649)
  0.00013961868               (-0.17199936 -3.8075132 -1.2741524)               (-2.1218924 1.9876732 -6.8363799)               (0.8107796 3.6042007 0.9638804)               (-1.9406983 4.6379625 -0.54993332)               (-0.72961605 2.8495643 -5.9573906)               (-3.2146681 1.4967293 -5.6889967)               (-6.1344344 4.6758041 6.8461199)               (-7.8784675 -1.8513978 0.95896327)               (6.0826937 5.6821076 0.69529713)               (-1.4081403 -0.66830838 -1.7528918)               (-5.9697178 4.2893046 2.9897817)               (-0.22691279 -2.4266181 -0.28659272)               (3.7607495 2.0805845 2.7783821)               (1.2669306 -1.0434405 0.006313169)               (4.3820565 -1.3798958 6.4620116)               (-1.0582049 -2.4465441 -1.7957528)               (10.040944 5.4092702 -1.1851939)               (-4.6215902 -0.27835217 0.12910968)
  0.00014592084               (-0.2408727 -3.7664232 -1.317275)               (-2.0881189 1.8906059 -6.8673585)               (0.85046398 3.504694 0.71736955)               (-1.8202106 4.6655219 -0.54200418)               (-0.72145883 3.0085598 -6.1748912)               (-3.3055948 1.1819641 -5.9339368)               (-5.8728181 4.6262423 7.2060454)               (-7.7636912 -1.9895226 0.93284442)               (5.8816933 5.6387046 0.72472848)               (-1.3904942 -0.74613081 -1.8729672)               (-6.0889165 4.4067036 2.9162527)               (-0.16101643 -2.4480165 -0.30971761)               (3.6957195 2.055937 2.8575442)               (1.2374649 -1.0998109 0.013245032)               (4.2705465 -1.4196612 6.4728156)               (-1.0133856 -2.4713643 -1.7001884)               (10.230042 5.4460246 -1.4147778)               (-4.6271948 -0.42786857 0.074013277)
  0.00015222982               (-0.31080664 -3.7233715 -1.3587057)               (-2.0542129 1.7889266 -6.8973699)               (0.88607124 3.3928892 0.48396177)               (-1.70465 4.6854802 -0.5235178)               (-0.68413465 3.1537034 -6.3998891)               (-3.3918433 0.8698348 -6.1769078)               (-5.6387316 4.5850971 7.5355649)               (-7.6174055 -2.1140294 0.90473515)               (5.6829221 5.6069435 0.74270684)               (-1.3801253 -0.83553667 -1.9954543)               (-6.1922368 4.4938803 2.8554935)               (-0.096819748 -2.468432 -0.33312814)               (3.6252151 2.0267181 2.9374419)               (1.207368 -1.1570212 0.021235563)               (4.162245 -1.4230217 6.4753468)               (-0.96708818 -2.4937205 -1.5997147)               (10.414465 5.5047857 -1.5656798)               (-4.6274011 -0.56085428 0.021674135)
  0.00015854698               (-0.38150444 -3.6780308 -1.3983239)               (-2.021327 1.6891522 -6.9236341)               (0.91783612 3.2711158 0.26643169)               (-1.5995858 4.697322 -0.49864465)               (-0.61315144 3.2809935 -6.6317278)               (-3.4704051 0.56594557 -6.4148481)               (-5.4509742 4.5603854 7.8123954)               (-7.4526634 -2.2023231 0.88164053)               (5.4848032 5.58918 0.75003341)               (-1.3784077 -0.93742968 -2.1197274)               (-6.2713096 4.5525155 2.8093407)               (-0.036355256 -2.487879 -0.35668005)               (3.5493161 1.9929985 3.017706)               (1.1753721 -1.2155907 0.030868282)               (4.0624943 -1.3812303 6.4672485)               (-0.91747962 -2.5124653 -1.4931248)               (10.584375 5.5943706 -1.637026)               (-4.622868 -0.67142436 -0.026935772)
  0.00016487363               (-0.45271032 -3.6301074 -1.4359993)               (-1.9911846 1.5979135 -6.9428466)               (0.94585001 3.1410243 0.066335126)               (-1.5094289 4.7019242 -0.47311531)               (-0.50375218 3.3861615 -6.8687712)               (-3.5379308 0.27836727 -6.6438994)               (-5.3234372 4.5632098 8.0186757)               (-7.2825408 -2.24031 0.86972587)               (5.2910154 5.5849576 0.74337862)               (-1.386369 -1.0521864 -2.2449861)               (-6.3180054 4.5861503 2.7793106)               (0.026360399 -2.506277 -0.38046851)               (3.4681451 1.9549362 3.0978227)               (1.1431229 -1.2751564 0.042786748)               (3.9723642 -1.290028 6.4499205)               (-0.86555024 -2.5276082 -1.3788955)               (10.727586 5.7149888 -1.6448883)               (-4.614035 -0.75694226 -0.071442282)
  0.00017121105               (-0.52421297 -3.579363 -1.4715849)               (-1.9656944 1.5211752 -6.9519956)               (0.97124899 3.0054106 -0.11511405)               (-1.4377935 4.7011331 -0.45320076)               (-0.35088019 3.4637812 -7.1083113)               (-3.5902172 0.013650307 -6.8613534)               (-5.2619861 4.6072189 8.1438093)               (-7.1178126 -2.2238305 0.87023992)               (5.0977446 5.5952781 0.72655681)               (-1.404473 -1.1795834 -2.3703887)               (-6.3257916 4.5991199 2.7662904)               (0.088419969 -2.5234409 -0.40431642)               (3.3819285 1.9127692 3.1773795)               (1.1110819 -1.3352977 0.057836277)               (3.8906775 -1.1521172 6.4238302)               (-0.81275581 -2.5389628 -1.2567074)               (10.833967 5.8577818 -1.6122887)               (-4.6013671 -0.81765831 -0.11159502)
  0.00017756043               (-0.59587784 -3.5255876 -1.5049101)               (-1.9465405 1.4635786 -6.9491075)               (0.99433126 2.866666 -0.28105222)               (-1.386788 4.6975599 -0.44521806)               (-0.15007025 3.5092988 -7.3466993)               (-3.6234829 -0.22099085 -7.0653507)               (-5.2624827 4.7073599 8.1865275)               (-6.9685724 -2.156306 0.88601033)               (4.9026342 5.6197984 0.70027034)               (-1.4325614 -1.318784 -2.4950993)               (-6.2910204 4.5955482 2.7703125)               (0.14449112 -2.5392933 -0.42818643)               (3.2909934 1.8666914 3.2558333)               (1.0794882 -1.3965915 0.076062016)               (3.8132284 -0.96972788 6.390959)               (-0.75933342 -2.5465397 -1.125421)               (10.899719 6.006517 -1.5629444)               (-4.5851123 -0.85593289 -0.14754647)
  0.00018392286               (-0.66766256 -3.4686148 -1.5358088)               (-1.9348975 1.4280393 -6.9336618)               (1.0163873 2.7273748 -0.42923686)               (-1.3566767 4.6942907 -0.45541585)               (0.10064957 3.5193005 -7.5775065)               (-3.6341239 -0.42190315 -7.2523713)               (-5.3109301 4.8780183 8.1552005)               (-6.8392253 -2.0502224 0.91308913)               (4.7081364 5.6571252 0.66741455)               (-1.4698211 -1.4681721 -2.618261)               (-6.2138775 4.5783446 2.7909291)               (0.19842546 -2.5537625 -0.45211417)               (3.1956879 1.8168883 3.3326227)               (1.04837 -1.4582879 0.098023736)               (3.7323558 -0.751348 6.3527512)               (-0.70421618 -2.550536 -0.98557984)               (10.923553 6.1427738 -1.5095091)               (-4.5654536 -0.87545979 -0.17953044)
  0.00019029934               (-0.73957125 -3.4082762 -1.5640688)               (-1.9313239 1.415657 -6.906561)               (1.0381546 2.5904602 -0.56008885)               (-1.3504548 4.6944986 -0.48860728)               (0.40872772 3.4931741 -7.7933995)               (-3.6203233 -0.58476646 -7.4217087)               (-5.3862709 5.1312504 8.0654275)               (-6.7305134 -1.9220128 0.94678983)               (4.5126898 5.7065069 0.629458)               (-1.5146097 -1.6254505 -2.7390317)               (-6.0981342 4.548548 2.8271092)               (0.25013725 -2.5668816 -0.47598699)               (3.0965079 1.763624 3.4072945)               (1.0179247 -1.5200453 0.12416238)               (3.6440209 -0.50341858 6.3122854)               (-0.64823611 -2.5510233 -0.83742536)               (10.909782 6.2502163 -1.4561273)               (-4.5426429 -0.88045944 -0.20774407)
  0.00019669077               (-0.81171397 -3.3444242 -1.5894828)               (-1.9357204 1.4258581 -6.8697275)               (1.0614651 2.4585708 -0.6740519)               (-1.3662592 4.7014035 -0.54646487)               (0.77128422 3.4339045 -7.9847065)               (-3.582146 -0.70893092 -7.5715875)               (-5.4644006 5.4755368 7.9362757)               (-6.6392844 -1.7893912 0.9814535)               (4.3175607 5.7664275 0.58808412)               (-1.5645209 -1.7878211 -2.8566418)               (-5.9501788 4.5053214 2.8774268)               (0.29955179 -2.578532 -0.49979494)               (2.9938504 1.7071807 3.4792403)               (0.98833623 -1.5817223 0.15520759)               (3.5405473 -0.23360193 6.2701572)               (-0.59521742 -2.5476489 -0.67890314)               (10.866271 6.3176019 -1.4017755)               (-4.5167521 -0.87495563 -0.2323832)
  0.00020309789               (-0.88425919 -3.276925 -1.6118487)               (-1.9472902 1.4567981 -6.8254213)               (1.0882104 2.3345704 -0.77229035)               (-1.4042828 4.7171557 -0.62813804)               (1.1853615 3.3484775 -8.1401688)               (-3.5235036 -0.79414259 -7.701586)               (-5.52194 5.9152834 7.7863149)               (-6.5618766 -1.6678242 1.0127871)               (4.1234798 5.8352408 0.54443345)               (-1.616642 -1.9520949 -2.9703433)               (-5.7779261 4.4462225 2.9403555)               (0.34772762 -2.5887786 -0.52341006)               (2.8883311 1.6477708 3.5480025)               (0.95928719 -1.6428302 0.18870818)               (3.417882 0.052264419 6.227716)               (-0.54197518 -2.5405804 -0.51203719)               (10.800909 6.3394785 -1.3464803)               (-4.4880287 -0.86248896 -0.25359111)
  0.00020952131               (-0.95743618 -3.2056381 -1.6310001)               (-1.9644362 1.5059094 -6.7754839)               (1.1193165 2.2218924 -0.85518341)               (-1.4637855 4.7423234 -0.72960625)               (1.6441073 3.2471826 -8.2473234)               (-3.45041 -0.84256002 -7.8101824)               (-5.538924 6.4504858 7.6306373)               (-6.4936935 -1.5676101 1.0372426)               (3.9309338 5.9114939 0.49944412)               (-1.6675682 -2.1149881 -3.0793319)               (-5.5898608 4.3677773 3.0145755)               (0.39387682 -2.597587 -0.54668809)               (2.7805584 1.5857244 3.6130529)               (0.93138008 -1.7032976 0.22624631)               (3.272859 0.34998125 6.1851904)               (-0.49143969 -2.5296021 -0.3370515)               (10.72122 6.314534 -1.2935623)               (-4.4566225 -0.84571762 -0.27142193)