# Probe 0 (0 0.005 0)
# Probe 1 (-0.01 -0.005 0)
# Probe 2 (0.01 -0.005 0)
# Probe 3 (0 -0.005 0.01)
# Probe 4 (0 -0.005 -0.01)
# Probe 5 (-0.01 0.005 0)
# Probe 6 (0.01 0.005 0)
# Probe 7 (0 0.005 0.01)
# Probe 8 (0 0.005 -0.01)
# Probe 9 (-0.005 0.005 0)
# Probe 10 (0.005 0.005 0)
# Probe 11 (0 0.005 0.005)
# Probe 12 (0 0.005 -0.005)
# Probe 13 (-0.01 0.015 0)
# Probe 14 (0.01 0.015 0)
# Probe 15 (0 0.015 0.01)
# Probe 16 (0 0.015 -0.01)
# Probe 17 (0 0.015 0)
#         Probe               0               1               2               3               4               5               6               7               8               9              10              11              12              13              14              15              16              17
#          Time
     0.10083083       100096.99       100107.39        99990.91        100087.6       100103.45       100152.91       100099.65       100126.55       100105.36       100126.23       100087.84       100125.74       100100.49       100131.63       100116.34       100126.75       100088.85       100107.25
     0.10083631       100097.12        100106.6       99990.753       100086.59        100103.9       100153.08       100099.48       100127.27       100105.29       100126.22       100087.68       100125.86       100100.29       100131.67       100116.43       100126.74       100089.21       100107.32
     0.10084186       100097.22       100105.79       99991.726       100085.56       100104.46       100153.27        100099.2       100127.97       100105.24       100126.22       100087.52       100125.95       100100.22       100131.71       100116.58       100126.72       100089.56       100107.39
     0.10084749       100097.28       100104.95       99992.984       100084.53       100105.13       100153.46       100098.87       100128.76       100105.18       100126.23       100087.35       100126.07       100100.03       100131.74       100116.73        100126.7        100089.8       100107.46
     0.10085321        100097.3       100104.06       99994.695       100083.47       100105.76       100153.65       100098.38        100129.5        100105.1       100126.22       100087.15       100126.12       100099.89       100131.77       100116.87       100126.68       100090.03       100107.53
     0.10085901       100097.33       100103.21       99996.873       100082.45       100106.34       100153.89       100097.87       100130.28       100105.12       100126.28       100087.01       100126.26       100099.83       100131.84        100117.1       100126.69       100090.23       100107.66
     0.10086482       100097.29        100102.3       99999.273        100081.4       100106.67       100154.14       100097.26       100131.01       100105.09        100126.3        100086.8       100126.32       100099.72       100131.85       100117.34       100126.61       100090.28       100107.74
     0.10087055       100097.12       100101.31       100001.61       100080.24       100106.65        100154.2       100096.47       100131.55       100104.97       100126.25       100086.52       100126.27       100099.56        100131.8       100117.48       100126.47        100090.2       100107.74
     0.10087623       100096.96       100100.39       100004.11       100079.15        100106.4       100154.27       100095.62       100132.21       100104.93       100126.24       100086.29       100126.28       100099.43       100131.78        100117.7        100126.4       100090.12       100107.79
     0.10088187       100096.77       100099.46        100006.6       100078.01       100105.89       100154.45       100094.76       100132.72        100104.9       100126.22       100086.02       100126.25       100099.33       100131.76        100117.9       100126.34       100089.83       100107.84
     0.10088749       100096.57       100098.58       100009.09        100076.9       100105.23       100154.63       100093.88       100133.27       100104.88       100126.25       100085.78        100126.2       100099.31       100131.76       100118.17       100126.33       100089.75       100107.92
     0.10089312       100096.37       100097.72        100011.6       100075.76       100104.53       100154.84       100092.94       100133.76       100104.91       100126.32       100085.56       100126.17       100099.33       100131.77       100118.42       100126.33       100089.54       100108.02
     0.10089877       100096.13       100096.87       100014.11       100074.61        100103.9       100154.98       100091.97       100134.26       100104.92       100126.35       100085.34       100126.11       100099.29       100131.78       100118.65       100126.29       100089.33       100108.12
     0.10090443       100095.87       100096.06       100016.64       100073.46       100103.46       100155.17       100090.96       100134.71       100104.95        100126.4       100085.09       100125.99       100099.36       100131.79       100118.94       100126.29       100089.17       100108.22
     0.10091014       100095.59        100095.3        100019.1       100072.34       100103.28       100155.34       100089.95       100135.14       100104.98       100126.45       100084.84       100125.85       100099.38        100131.8       100119.21       100126.27       100089.08       100108.33
     0.10091588       100095.27       100094.59       100021.32       100071.24       100103.27        100155.5       100088.87       100135.52       100105.01        100126.5       100084.58       100125.73       100099.45       100131.81       100119.47       100126.24       100089.01       100108.43
     0.10092167       100094.94       100093.95       100023.21       100070.26        100103.4       100155.67        100087.8       100135.92       100105.02       100126.55       100084.32       100125.52       100099.54       100131.82       100119.73        100126.2       100088.82       100108.53
     0.10092749        100094.6       100093.42       100024.72       100069.43       100103.58        100155.8       100086.71        100136.3       100105.09       100126.62       100084.07       100125.41       100099.67       100131.85       100119.99       100126.16       100088.98       100108.66
     0.10093331        100094.2       100092.91       100025.67       100068.73       100103.63        100155.9       100085.53       100136.59       100105.06       100126.65       100083.78       100125.18       100099.74       100131.82        100120.2       100126.05       100089.01       100108.73
      0.1009391        100093.8       100092.47       100026.12       100068.26       100103.59       100156.03       100084.33       100136.88       100105.07       100126.68       100083.46          100125       100099.84        100131.8       100120.39       100125.96       100089.21       100108.81
     0.10094487       100093.42       100092.08       100026.29       100068.07       100103.45       100156.09        100083.1       100137.14        100105.1       100126.73       100083.19       100124.83       100099.95       100131.81       100120.54       100125.88       100089.56        100108.9
     0.10095062       100093.06       100091.73       100026.35       100068.35       100103.26       100156.22       100081.87       100137.43       100105.12       100126.79       100082.93       100124.56       100100.08       100131.83       100120.75       100125.81       100089.82       100109.01
     0.10095634       100092.74       100091.38       100026.39       100068.99       100103.07       100156.31       100080.61       100137.66       100105.15       100126.85       100082.64       100124.46       100100.21       100131.83       100120.88       100125.73       100089.96       100109.11
     0.10096204       100092.45          100091       100026.44        100070.2       100102.94       100156.39       100079.47        100137.9       100105.17        100126.9        100082.4       100124.26       100100.34       100131.86       100120.99       100125.68       100090.19       100109.21
     0.10096772       100092.21       100090.65       100026.31       100071.91       100102.94       100156.49       100078.42       100138.09       100105.19       100126.98       100082.13        100124.1       100100.47       100131.89       100121.11       100125.66       100090.26       100109.34
     0.10097338       100092.05       100090.28       100026.04       100074.18       100103.03       100156.57       100077.53       100138.27       100105.23       100127.05       100081.93       100123.93       100100.61       100131.92       100121.19       100125.61       100090.18       100109.46
     0.10097901       100091.99       100089.91       100025.66        100076.9       100103.23       100156.65       100076.82        100138.4       100105.25       100127.13       100081.68       100123.73       100100.73       100131.96       100121.21        100125.6       100090.17       100109.57
     0.10098464       100091.99       100089.55       100025.23       100079.79       100103.46       100156.73       100076.29       100138.47       100105.29       100127.21       100081.41       100123.58       100100.87       100131.99       100121.22       100125.56       100090.11        100109.7
     0.10099024        100092.1        100089.2       100024.69       100083.48       100103.77       100156.81       100075.91       100138.44       100105.32        100127.3       100081.25       100123.51          100101       100132.04       100121.19       100125.52       100089.81       100109.82
     0.10099585       100092.28       100088.86       100023.97       100087.17       100104.08       100156.85       100075.66       100138.39       100105.37       100127.38       100080.97       100123.19       100101.13       100132.07       100121.11        100125.5       100089.73       100109.94
     0.10100144       100092.55       100088.54       100023.11       100090.71       100104.43        100156.9       100075.53       100138.28       100105.39       100127.47        100080.8       100123.05       100101.26       100132.12       100121.03       100125.46       100089.63       100110.05
     0.10100704       100092.89       100088.22       100022.12       100094.24       100104.86       100156.95       100075.47       100138.15       100105.44       100127.56        100080.7       100123.03       100101.42       100132.17        100120.9       100125.45       100089.54       100110.18
     0.10101262       100093.29       100087.88       100021.04       100097.38       100105.33       100156.96       100075.43       100138.05       100105.45       100127.64       100080.54       100122.85       100101.55        100132.2       100120.73       100125.38       100089.68       100110.28
      0.1010182       100093.72       100087.53        100019.9       100100.16        100105.9       100156.98       100075.41       100137.87       100105.47       100127.71       100080.31       100122.68       100101.69       100132.25        100120.5       100125.37       100090.08        100110.4
     0.10102377       100094.16       100087.12       100018.73       100102.47       100106.52       100156.98        100075.4       100137.75       100105.52        100127.8       100080.16       100122.58       100101.84        100132.3       100120.32       100125.33       100090.64       100110.51
     0.10102931        100094.6       100086.65       100017.55       100104.32       100107.22       100156.97       100075.33       100137.56       100105.56       100127.89       100080.03       100122.39       100102.01       100132.34       100120.07       100125.34          100091       100110.62
     0.10103483       100095.02       100086.08       100016.41       100105.73        100107.9       100156.94       100075.23       100137.46       100105.61       100127.96       100079.83       100122.34       100102.16       100132.36       100119.82        100125.3       100091.75       100110.72
     0.10104031       100095.42       100085.46       100015.33       100106.83       100108.64       100156.91       100075.18       100137.42       100105.68       100128.05       100079.73       100122.19       100102.32       100132.42       100119.53       100125.29       100092.24       100110.83
     0.10104576       100095.77       100084.75       100014.33       100107.64       100109.36       100156.87       100075.14       100137.31       100105.73       100128.13       100079.61       100122.02       100102.46       100132.46       100119.27       100125.26       100092.82       100110.92
     0.10105117       100096.09       100084.03       100013.48       100108.28       100110.08       100156.81       100075.06       100137.27        100105.8       100128.22       100079.47       100121.91       100102.59       100132.52       100118.97       100125.24       100093.25       100111.03
     0.10105655       100096.34       100083.26       100012.82        100108.8       100110.77       100156.73       100075.03       100137.17       100105.87       100128.29       100079.45       100121.76        100102.7       100132.55       100118.67        100125.2        100093.7       100111.12
      0.1010619       100096.58       100082.51       100012.41        100109.3       100111.46       100156.67       100074.99       100137.04       100105.98       100128.39        100079.4       100121.57       100102.81       100132.61       100118.42       100125.21       100094.12       100111.24
     0.10106723       100096.75       100081.75       100012.28       100109.74       100112.13       100156.58       100074.96       100137.13       100106.09       100128.47       100079.35       100121.47       100102.89       100132.67       100118.13        100125.2       100094.52       100111.33
     0.10107255       100096.87       100080.98       100012.37       100110.16       100112.77       100156.49        100074.9       100137.15       100106.17       100128.56       100079.32       100121.31       100102.95       100132.72       100117.86       100125.23       100094.88       100111.44
     0.10107786       100096.95       100080.21        100012.7       100110.61       100113.38       100156.38       100074.74       100137.11        100106.3       100128.64       100079.31       100121.05       100102.98       100132.78       100117.57       100125.24       100095.22       100111.54
     0.10108318       100097.02       100079.42       100013.25       100111.05       100113.98       100156.28       100074.57       100137.15       100106.47       100128.74        100079.3       100120.94       100103.01       100132.84       100117.35       100125.31       100095.64       100111.65
     0.10108851       100097.09       100078.58       100013.99        100111.5       100114.55       100156.17       100074.32       100137.16       100106.58       100128.83       100079.29       100120.71       100103.02       100132.91       100117.09       100125.36       100095.93       100111.77
     0.10109387       100097.16       100077.67       100014.89       100111.94       100115.08       100156.02       100074.08       100137.16        100106.8        100128.9       100079.27       100120.43       100103.01       100132.96       100116.85       100125.36       100096.18       100111.87
     0.10109927       100097.23        100076.7       100015.95       100112.36       100115.56       100155.88       100073.85       100137.16       100106.87       100128.99       100079.34       100120.21          100103       100133.01        100116.6       100125.42       100096.38       100111.97
     0.10110471       100097.31       100075.61       100017.13       100112.75          100116       100155.71       100073.51       100137.08       100107.02       100129.06       100079.37       100119.88       100102.98       100133.06       100116.43       100125.47       100096.48       100112.07
      0.1011102       100097.36       100074.39       100018.39       100113.09       100116.38       100155.53       100073.25       100136.96       100107.17       100129.14       100079.39       100119.57       100102.95        100133.1       100116.19       100125.55       100096.46       100112.16
     0.10111575       100097.38       100073.06       100019.71       100113.38        100116.7       100155.36       100072.94       100136.76       100107.36       100129.22       100079.46       100119.44       100102.93       100133.17       100115.93       100125.55        100096.4       100112.25
     0.10112136       100097.39       100071.61       100021.02        100113.6       100116.96       100155.15        100072.7        100136.6       100107.46       100129.29        100079.5       100119.09       100102.92        100133.2        100115.7        100125.6       100096.29       100112.34
     0.10112705       100097.32       100070.04       100022.27       100113.73       100117.14       100154.91       100072.38       100136.39       100107.61       100129.34       100079.52       100118.91       100102.89       100133.23       100115.45        100125.7       100096.03       100112.41
     0.10113282       100097.25       100068.42       100023.45       100113.78       100117.31       100154.69       100072.16       100136.17        100107.8       100129.42        100079.6       100118.75       100102.91       100133.28       100115.24       100125.73       100095.86        100112.5
     0.10113868       100097.15       100066.84        100024.5       100113.73       100117.42       100154.44       100071.86       100135.97       100107.96       100129.48       100079.64       100118.47       100102.92       100133.31       100115.01       100125.81       100095.66       100112.57
     0.10114464       100097.03       100065.31       100025.43       100113.61       100117.55       100154.16        100071.6       100135.86       100108.13       100129.53       100079.71       100118.32       100102.94       100133.32       100114.71       100125.89       100095.42       100112.63
     0.10115069       100096.97       100064.06        100026.3       100113.48       100117.78       100153.95       100071.44        100135.8       100108.35       100129.66       100079.83       100118.09       100103.04       100133.41       100114.51       100126.01        100095.2       100112.76
     0.10115676       100096.83       100063.09       100026.94       100113.19       100117.96       100153.63       100071.22       100135.93       100108.52        100129.7       100079.88       100117.87       100103.08       100133.41        100114.2        100126.1       100095.03       100112.78
     0.10116282       100096.72       100062.59       100027.38       100112.84       100118.18        100153.3       100071.09       100136.11       100108.65       100129.72        100079.9       100117.66        100103.1       100133.39        100113.9       100126.17       100094.76       100112.79
     0.10116886       100096.73       100062.56       100027.71        100112.5       100118.45          100153       100070.91       100136.34        100108.8       100129.79       100079.97       100117.37       100103.16       100133.42       100113.65       100126.29        100094.6       100112.85
     0.10117489       100096.76       100063.16       100027.85        100112.1       100118.69       100152.66       100070.91       100136.63       100108.92       100129.83          100080       100117.18       100103.19       100133.42       100113.35       100126.37       100094.34       100112.86
     0.10118091        100096.9       100064.27       100027.85       100111.73       100118.94       100152.33       100071.05       100136.97       100109.08       100129.89       100080.07       100116.95       100103.24       100133.42       100113.11       100126.55       100094.11        100112.9
     0.10118694       100097.11       100065.85       100027.65       100111.37       100119.15       100151.99       100071.19       100137.29       100109.22       100129.95       100080.14       100116.76       100103.27       100133.44        100112.9       100126.69       100093.92       100112.93
     0.10119298       100097.42       100067.72        100027.3       100110.99       100119.35       100151.64       100071.22       100137.47       100109.32       100130.01       100080.22       100116.63       100103.29       100133.46       100112.68       100126.84       100093.73       100112.96
     0.10119903       100097.74       100069.82       100026.83        100110.6       100119.54       100151.29       100071.29       100137.59       100109.48       100130.07        100080.3       100116.46       100103.31       100133.49       100112.49       100127.04       100093.52          100113
     0.10120509       100098.07       100071.83       100026.23        100110.2       100119.69       100150.92       100071.42       100137.64       100109.64       100130.13       100080.37       100116.27       100103.32       100133.52        100112.3        100127.2       100093.48       100113.03
     0.10121113       100098.41       100073.53       100025.57       100109.77       100119.82       100150.52       100071.47       100137.62       100109.74       100130.16       100080.41       100116.04       100103.32       100133.52       100112.06       100127.37        100093.3       100113.02
     0.10121716       100098.68       100074.79        100024.9       100109.33       100119.94       100150.14       100071.55       100137.52       100109.86       100130.21       100080.48       100115.88       100103.34       100133.54       100111.86       100127.56       100093.17       100113.04
     0.10122319       100098.84       100075.76       100024.21       100108.88       100120.02       100149.74       100071.76       100137.42          100110       100130.26       100080.55       100115.68       100103.36       100133.54       100111.62       100127.73       100093.12       100113.04
     0.10122921       100098.94        100076.5       100023.58        100108.4       100120.07       100149.34       100071.68       100137.18       100110.13       100130.31        100080.6        100115.5        100103.4       100133.55       100111.32       100127.92       100092.99       100113.04
     0.10123522       100098.94       100077.03       100023.02       100107.91       100120.09       100148.93        100071.7       100136.74       100110.26       100130.35       100080.66       100115.28       100103.46       100133.56       100111.13       100128.28       100092.91       100113.03
     0.10124124       100098.84       100077.38       100022.54       100107.37       100120.07        100148.5       100071.62       100136.25       100110.39       100130.38       100080.68       100115.07       100103.52       100133.54        100110.8       100128.22       100092.69          100113
     0.10124725        100098.7       100077.61       100022.16       100106.83       100120.04       100148.08       100071.49       100135.65       100110.57       100130.42       100080.74       100114.82       100103.62       100133.54       100110.51       100128.44        100092.7       100112.98
     0.10125327       100098.48       100077.82       100021.89       100106.24       100119.98       100147.64       100071.31       100134.89       100110.71       100130.44       100080.77       100114.58       100103.71       100133.53       100110.17       100128.52       100092.61       100112.95
      0.1012593       100098.25        100078.1       100021.76       100105.62       100119.93       100147.22       100071.04       100134.14       100110.87       100130.49       100080.82       100114.35       100103.83       100133.54       100109.87       100128.64       100092.52       100112.92
     0.10126533       100098.01       100078.48       100021.73       100104.96       100119.88       100146.77       100070.72       100133.45       100111.05       100130.53       100080.86       100114.13       100103.95       100133.53       100109.52       100128.78       100092.48       100112.88
     0.10127137       100097.78       100078.87       100021.84       100104.23       100119.82       100146.32       100070.23       100132.81       100111.25       100130.55       100080.91        100113.9       100104.07       100133.53       100109.15       100128.92       100092.46       100112.84
     0.10127741       100097.56       100079.18       100022.05       100103.44       100119.75       100145.85       100069.56       100132.27       100111.42       100130.57       100080.93       100113.67       100104.17       100133.51       100108.75       100129.02       100092.39       100112.78
     0.10128345        100097.4       100079.34        100022.4       100102.59       100119.67       100145.39       100068.89       100131.89       100111.62       100130.59       100080.92       100113.42       100104.27        100133.5       100108.32       100129.12       100092.32       100112.73
     0.10128949       100097.35       100079.34       100022.86        100101.7        100119.6       100144.95       100068.16       100131.61       100111.84       100130.63       100080.98        100113.2        100104.4       100133.51       100107.96       100129.15       100092.38       100112.69
     0.10129553       100097.35       100079.18       100023.36       100100.73       100119.48        100144.5       100067.33        100131.3       100112.06       100130.65       100081.03       100112.98        100104.5        100133.5       100107.57       100129.18       100092.35       100112.63
     0.10130155       100097.41       100078.95       100023.88       100099.69       100119.31       100144.02       100066.58       100130.95       100112.29       100130.65       100081.04       100112.74       100104.58       100133.48       100107.22       100129.21       100092.37       100112.56
     0.10130758       100097.58       100078.72       100024.37       100098.59        100119.1       100143.56       100065.89       100130.44        100112.5       100130.66       100081.04       100112.49       100104.66       100133.47       100106.89       100129.23       100092.32       100112.49
     0.10131361       100097.82       100078.53       100024.84       100097.44       100118.87       100143.12       100065.33       100129.75       100112.79       100130.68       100081.07       100112.24       100104.76       100133.48       100106.56       100129.21       100092.32       100112.45
     0.10131966       100098.11       100078.38       100025.25       100096.22       100118.62       100142.68       100064.94       100128.87       100113.09       100130.69       100081.08       100111.99       100104.85       100133.48       100106.26       100129.16        100092.3        100112.4
     0.10132572       100098.46       100078.28       100025.62       100094.96       100118.41       100142.24       100064.71       100127.86       100113.41        100130.7       100081.11       100111.74       100104.95       100133.48       100105.96       100129.14       100092.35       100112.36
     0.10133178       100098.83        100078.2       100025.91       100093.63       100118.24       100141.81       100064.61       100126.68       100113.65       100130.71       100081.11       100111.48       100105.03       100133.47        100105.6       100129.06       100092.31       100112.31
     0.10133784       100099.24       100078.21       100026.14       100092.28       100118.18       100141.38       100064.72       100125.52       100113.97       100130.71       100081.13       100111.22       100105.11       100133.48       100105.25       100128.96       100092.29       100112.28
      0.1013439       100099.63       100078.29       100026.33       100090.87       100118.23       100140.96          100065       100124.44       100114.31       100130.73       100081.16       100110.93        100105.2       100133.49       100104.87       100128.88       100092.28       100112.25
     0.10134994       100100.02       100078.48        100026.5       100089.43       100118.42       100140.54       100065.34       100123.48       100114.62       100130.72       100081.12       100110.65       100105.28       100133.49       100104.47       100128.72       100092.24       100112.22
     0.10135597       100100.37       100078.75       100026.61       100087.93       100118.72       100140.13       100065.81       100122.69       100114.94       100130.72       100081.16       100110.34       100105.35       100133.49       100103.96       100128.54       100092.23       100112.19
     0.10136199       100100.65       100079.13       100026.66        100086.4       100119.11       100139.72       100066.34       100122.14       100115.24       100130.72       100081.16       100110.06       100105.42       100133.48       100103.44       100128.36       100092.14       100112.16
     0.10136798       100100.84        100079.6       100026.57       100084.84       100119.56       100139.33       100066.92       100121.79       100115.54       100130.72       100081.18       100109.77        100105.5       100133.49       100102.88       100128.17       100092.13       100112.15
     0.10137394       100100.84       100080.14       100026.33       100083.23       100120.05       100138.94       100067.47       100121.64       100115.81       100130.71       100081.17       100109.48       100105.57       100133.48       100102.29       100127.94       100092.07       100112.12
     0.10137989       100100.74       100080.72       100025.85        100081.6       100120.54       100138.55       100068.03       100121.63       100116.08       100130.71       100081.17       100109.18       100105.65       100133.48       100101.67       100127.73       100092.07       100112.12