# Probe 0 (0 0.005 0)
# Probe 1 (-0.01 -0.005 0)
# Probe 2 (0.01 -0.005 0)
# Probe 3 (0 -0.005 0.01)
# Probe 4 (0 -0.005 -0.01)
# Probe 5 (-0.01 0.005 0)
# Probe 6 (0.01 0.005 0)
# Probe 7 (0 0.005 0.01)
# Probe 8 (0 0.005 -0.01)
# Probe 9 (-0.005 0.005 0)
# Probe 10 (0.005 0.005 0)
# Probe 11 (0 0.005 0.005)
# Probe 12 (0 0.005 -0.005)
# Probe 13 (-0.01 0.015 0)
# Probe 14 (0.01 0.015 0)
# Probe 15 (0 0.015 0.01)
# Probe 16 (0 0.015 -0.01)
# Probe 17 (0 0.015 0)
#         Probe               0               1               2               3               4               5               6               7               8               9              10              11              12              13              14              15              16              17
#          Time
     0.10083083               (-4.4287254 -3.417398 -5.6897286)               (4.6164578 7.0594989 -7.6594779)               (-3.8591724 18.686381 9.7973403)               (-13.343763 13.153626 -2.6514949)               (6.7523746 3.9379143 -4.2501515)               (-0.3175016 0.11925345 -6.5013997)               (-6.9931649 9.7655077 6.5000829)               (-5.882204 0.46712996 4.7402268)               (3.6306854 2.0087881 -3.8376552)               (-0.2540497 -2.5639555 -6.0481411)               (-1.1585201 3.944878 -1.4801128)               (-4.162546 -1.7407076 -0.31800909)               (0.056858484 -0.7707734 -5.1729801)               (-3.5364221 -3.4909317 -4.5030608)               (-1.2225311 6.1637786 9.2420894)               (0.95377217 -0.080913044 -4.3004452)               (1.793838 2.7281918 -5.701564)               (-0.24393463 -4.9442299 -3.2830982)
     0.10083631               (-4.2097875 -3.3447216 -5.7777687)               (4.6591155 7.021925 -7.7249075)               (-3.6685804 18.940049 9.957563)               (-13.365769 13.296537 -2.8938174)               (6.7567034 4.4502569 -4.3689533)               (-0.29796844 0.19591878 -6.468561)               (-7.1668761 9.614399 6.3507017)               (-5.9205096 0.61422948 4.7456502)               (3.6259064 2.0269647 -3.9044894)               (-0.22807711 -2.5907355 -6.033689)               (-1.144496 4.0332791 -1.473997)               (-4.2203638 -1.7474458 -0.33273627)               (0.0070299982 -0.80640529 -5.1553964)               (-3.5471702 -3.4757715 -4.5308214)               (-1.4134215 6.1536387 9.1671897)               (1.0065786 -0.041930597 -4.2574718)               (1.975335 2.4469975 -5.8862509)               (-0.18489565 -4.9787933 -3.3035648)
     0.10084186               (-3.9868891 -3.2296827 -5.8597053)               (4.7053232 6.9709582 -7.7996897)               (-3.5097482 19.073853 10.175535)               (-13.369946 13.437975 -3.1431337)               (6.7816626 4.9440627 -4.4514387)               (-0.27566926 0.27295735 -6.4340478)               (-7.2735266 9.4853675 6.2201375)               (-5.9726005 0.8035234 4.7361731)               (3.6192734 2.0411575 -3.9739935)               (-0.20265189 -2.6156202 -6.0179193)               (-1.1290175 4.1166414 -1.4652016)               (-4.2798276 -1.7523969 -0.35172071)               (-0.029038498 -0.8426243 -5.1330944)               (-3.5535723 -3.4481778 -4.5652669)               (-1.6278422 6.1462096 9.0821431)               (1.0588396 -0.0040835808 -4.2130411)               (2.170856 2.1568845 -6.0614014)               (-0.12555145 -5.009724 -3.3245337)
     0.10084749               (-3.7731861 -3.1016545 -5.9414975)               (4.7548744 6.9032403 -7.8816632)               (-3.3310105 19.082669 10.380674)               (-13.363394 13.574592 -3.3928018)               (6.8258972 5.3755669 -4.5073236)               (-0.2505323 0.35006362 -6.3979724)               (-7.3110722 9.3740978 6.1153842)               (-6.036421 1.0340152 4.713958)               (3.610967 2.0521862 -4.0464023)               (-0.17760785 -2.6389302 -6.0008137)               (-1.1122479 4.1948548 -1.453528)               (-4.3410883 -1.7531417 -0.37590572)               (-0.050843701 -0.87816545 -5.1057481)               (-3.5544623 -3.4090962 -4.6064381)               (-1.8601555 6.1486727 8.9892995)               (1.1102295 0.032532848 -4.1665227)               (2.3830654 1.8638736 -6.2198559)               (-0.06597241 -5.0369151 -3.3459345)
     0.10085321               (-3.5820969 -2.9884264 -6.0305551)               (4.8067618 6.8157439 -7.9669259)               (-3.1178117 19.004997 10.553275)               (-13.35053 13.704399 -3.6367646)               (6.8898171 5.7054643 -4.5340117)               (-0.2224105 0.42725991 -6.3599705)               (-7.2799756 9.2738022 6.0445045)               (-6.1081734 1.302356 4.6816675)               (3.6011768 2.0611024 -4.1217473)               (-0.15271036 -2.6610278 -5.9823024)               (-1.0940728 4.2672009 -1.4389525)               (-4.4049973 -1.7467453 -0.40640037)               (-0.063973728 -0.91361104 -5.0737092)               (-3.5488065 -3.3597711 -4.6542021)               (-2.1032748 6.1668702 8.8902211)               (1.160736 0.067757629 -4.1177689)               (2.6137212 1.5752032 -6.3528746)               (-0.0062430208 -5.0602528 -3.367685)
     0.10085901               (-3.4250384 -2.913567 -6.1326043)               (4.8586351 6.7068892 -8.0493938)               (-2.8862017 18.843285 10.701956)               (-13.33578 13.825972 -3.8709538)               (6.9711894 5.9056854 -4.5126693)               (-0.1913451 0.50400914 -6.3203523)               (-7.1844752 9.176314 6.0158987)               (-6.1887156 1.6000569 4.6428398)               (3.5902328 2.0688264 -4.1997987)               (-0.12778944 -2.6822019 -5.9623451)               (-1.0745631 4.3330885 -1.4212535)               (-4.471568 -1.7306802 -0.44472284)               (-0.06777579 -0.94852452 -5.0371602)               (-3.5357211 -3.3020328 -4.7080078)               (-2.3490317 6.204501 8.7862288)               (1.2100916 0.10131907 -4.0668198)               (2.8650213 1.3007786 -6.4487113)               (0.053352991 -5.0795524 -3.3895902)
     0.10086482               (-3.3079813 -2.8909632 -6.246816)               (4.9060803 6.579092 -8.1204231)               (-2.6465583 18.576088 10.8473)               (-13.323291 13.938093 -4.0922441)               (7.0588655 5.966401 -4.4212046)               (-0.15780537 0.57882857 -6.2793001)               (-7.0358291 9.0734475 6.0355334)               (-6.2764527 1.9108485 4.6016493)               (3.5785504 2.0762717 -4.2792416)               (-0.10297328 -2.7025495 -5.9411744)               (-1.0541493 4.3912043 -1.400679)               (-4.5411892 -1.7041638 -0.49112651)               (-0.062247321 -0.98222312 -4.9968327)               (-3.514973 -3.2390435 -4.7662451)               (-2.5870954 6.2616247 8.6788845)               (1.2577352 0.13231041 -4.0149928)               (3.1358236 1.0542655 -6.4956747)               (0.11178148 -5.0945127 -3.411147)
     0.10087055               (-3.2253916 -2.9171254 -6.3655123)               (4.9437513 6.4382492 -8.1714091)               (-2.3992936 18.202604 11.007555)               (-13.316441 14.040838 -4.3001715)               (7.1317145 5.9001173 -4.2616419)               (-0.12244854 0.65031859 -6.2361891)               (-6.8521993 8.9578246 6.1039121)               (-6.3707923 2.2157221 4.5612144)               (3.5667286 2.0837298 -4.3585722)               (-0.078354517 -2.7221752 -5.9189951)               (-1.0334469 4.4406368 -1.37776)               (-4.6133973 -1.6690273 -0.54475116)               (-0.047918197 -1.0142501 -4.9542875)               (-3.4870586 -3.1743788 -4.8269205)               (-2.8100509 6.3354753 8.569166)               (1.3027899 0.16018397 -3.9631144)               (3.4221157 0.84905682 -6.4836133)               (0.16814201 -5.1051087 -3.4318883)
     0.10087623               (-3.1626453 -2.9742525 -6.4784066)               (4.9665326 6.2905455 -8.1956419)               (-2.128087 17.748169 11.202234)               (-13.317334 14.137083 -4.4985875)               (7.1663433 5.7288728 -4.0727906)               (-0.085688678 0.71854924 -6.1916707)               (-6.6525871 8.8226255 6.217577)               (-6.4736187 2.5012074 4.523522)               (3.555219 2.09149 -4.4375027)               (-0.053650986 -2.7414256 -5.895676)               (-1.0124717 4.482129 -1.3524152)               (-4.6879592 -1.6302104 -0.60449074)               (-0.025377681 -1.0446063 -4.9086768)               (-3.4524946 -3.1105976 -4.888914)               (-3.0167315 6.4229927 8.4563779)               (1.3456239 0.18524342 -3.9111312)               (3.724538 0.69203131 -6.4063103)               (0.22251102 -5.1116624 -3.4517043)
     0.10088187               (-3.1051189 -3.0392699 -6.573865)               (4.9690563 6.1435833 -8.1874849)               (-1.7836651 17.273328 11.446255)               (-13.327546 14.229612 -4.6909164)               (7.1451198 5.4765778 -3.9207773)               (-0.046237996 0.7834872 -6.1467514)               (-6.4577124 8.6638102 6.3697728)               (-6.5887905 2.753314 4.4900457)               (3.5444701 2.0997893 -4.5157638)               (-0.028582342 -2.7606565 -5.8710535)               (-0.9910243 4.5156833 -1.3245651)               (-4.7661519 -1.5956438 -0.66702643)               (0.004150482 -1.0733568 -4.8612445)               (-3.4120099 -3.0500861 -4.9511135)               (-3.2071652 6.5196419 8.3401441)               (1.3862354 0.20761291 -3.8588711)               (4.0424337 0.58747291 -6.2583792)               (0.27498072 -5.1144645 -3.4704791)
     0.10088749               (-3.043163 -3.0935665 -6.6419456)               (4.9461401 6.0058062 -8.1429875)               (-1.3133079 16.843636 11.737356)               (-13.348015 14.321479 -4.879933)               (7.0642198 5.1714838 -3.8701044)               (-0.004675704 0.84562079 -6.101403)               (-6.2887347 8.4808359 6.5510072)               (-6.7197791 2.9603417 4.4609939)               (3.5349601 2.1084626 -4.5929587)               (-0.003077025 -2.7800824 -5.8447881)               (-0.96898334 4.5416297 -1.294221)               (-4.848622 -1.5764464 -0.72738408)               (0.040613695 -1.1006867 -4.8123683)               (-3.3665346 -2.9950674 -5.0124352)               (-3.3818698 6.6214826 8.2205241)               (1.425034 0.22754781 -3.8064169)               (4.3767417 0.54038517 -6.0350897)               (0.3256198 -5.1137629 -3.4880956)
     0.10089312               (-2.9742266 -3.1278536 -6.675737)               (4.8933843 5.8859394 -8.0604849)               (-0.71501487 16.466521 12.060896)               (-13.378888 14.415471 -5.0671223)               (6.9353837 4.8488846 -3.9541094)               (0.039004547 0.90522906 -6.0554796)               (-6.1655236 8.2773687 6.7492671)               (-6.8689134 3.1129598 4.4360049)               (3.5272381 2.1172504 -4.6685022)               (0.02298389 -2.7999336 -5.8170229)               (-0.94657077 4.5605845 -1.2611747)               (-4.9351551 -1.585569 -0.77886958)               (0.08470279 -1.126682 -4.7624109)               (-3.3171897 -2.9475799 -5.0717706)               (-3.5407351 6.7243869 8.0986877)               (1.4619935 0.24501111 -3.7535764)               (4.7254024 0.55347443 -5.7350724)               (0.37447776 -5.1097801 -3.5044092)
     0.10089877               (-2.9007757 -3.1417762 -6.671536)               (4.8080631 5.792321 -7.9411126)               (-0.043145846 16.069579 12.397218)               (-13.419867 14.513918 -5.2518053)               (6.7816642 4.5482167 -4.1623191)               (0.085092223 0.96214526 -6.0097161)               (-6.1037268 8.061495 6.9508086)               (-7.036362 3.2061992 4.4137526)               (3.5218595 2.1256524 -4.7416514)               (0.049693903 -2.8203305 -5.7874449)               (-0.92363714 4.5725224 -1.225249)               (-5.0262416 -1.6354043 -0.81262871)               (0.13425317 -1.1513809 -4.7118974)               (-3.2653071 -2.9093887 -5.1280061)               (-3.6833896 6.823334 7.9761704)               (1.4970465 0.25986354 -3.7003097)               (5.084411 0.62662422 -5.3584484)               (0.42152233 -5.1027358 -3.5192569)
     0.10090443               (-2.8267481 -3.1409787 -6.6281794)               (4.6899547 5.731974 -7.7887131)               (0.62614345 15.542021 12.719675)               (-13.470336 14.618539 -5.4307769)               (6.6293408 4.3045469 -4.4491199)               (0.13363533 1.0166049 -5.9641169)               (-6.1110232 7.8446211 7.1420893)               (-7.2212096 3.2411537 4.3915439)               (3.5194531 2.1330542 -4.8113033)               (0.077055202 -2.8413967 -5.7558807)               (-0.90031981 4.577655 -1.1862046)               (-5.1217804 -1.7353454 -0.81947479)               (0.18913181 -1.1748978 -4.6612581)               (-3.212377 -2.8818186 -5.1801183)               (-3.8087425 6.9135498 7.8553427)               (1.5303486 0.27213517 -3.6465156)               (5.4510712 0.76026207 -4.9091162)               (0.46674866 -5.0928333 -3.532465)
     0.10091014               (-2.7555624 -3.1329418 -6.5461331)               (4.5422623 5.710053 -7.6094721)               (1.2205627 14.786894 12.998597)               (-13.52971 14.730909 -5.5971592)               (6.5002416 4.1406752 -4.7540767)               (0.18487932 1.0691216 -5.9186553)               (-6.1840368 7.639712 7.3114592)               (-7.4188588 3.2251149 4.364508)               (3.5207009 2.1388182 -4.8765016)               (0.10505808 -2.863247 -5.7221207)               (-0.87652077 4.5760818 -1.1440749)               (-5.2199494 -1.8870654 -0.79182392)               (0.24692329 -1.1973955 -4.6109313)               (-3.1599968 -2.8656859 -5.2271788)               (-3.9151725 6.9912631 7.7385095)               (1.5619034 0.28175224 -3.5921765)               (5.8217093 0.95016474 -4.3959299)               (0.51011172 -5.0802755 -3.5438413)
     0.10091588               (-2.690494 -3.1248673 -6.4270013)               (4.3721299 5.7291589 -7.4111445)               (1.6933986 13.757781 13.216562)               (-13.59714 14.852664 -5.7409195)               (6.4077749 4.0615751 -5.0211189)               (0.23880145 1.11972 -5.873355)               (-6.3063541 7.4585868 7.4513297)               (-7.6213752 3.1728826 4.3250157)               (3.5263313 2.1423091 -4.9358348)               (0.13368659 -2.8859641 -5.6859326)               (-0.85206608 4.5681161 -1.0988662)               (-5.3186484 -2.0823706 -0.7252457)               (0.30811335 -1.2190579 -4.5614914)               (-3.109866 -2.861135 -5.2683236)               (-4.0008182 7.0524609 7.6278755)               (1.5916376 0.28848842 -3.5372618)               (6.1927851 1.1920092 -3.8315935)               (0.55153695 -5.0652633 -3.5531851)
     0.10092167               (-2.6352977 -3.1224816 -6.273266)               (4.1903156 5.788706 -7.2020549)               (2.0521566 12.496189 13.382605)               (-13.671216 14.985632 -5.849776)               (6.3581857 4.0521756 -5.2092336)               (0.29531996 1.1685546 -5.8282666)               (-6.4492263 7.3088679 7.559846)               (-7.8163485 3.1053575 4.2624417)               (3.5370879 2.1429444 -4.9877403)               (0.16282736 -2.9095817 -5.647227)               (-0.82732594 4.5541013 -1.0505157)               (-5.4129041 -2.3001681 -0.62228541)               (0.37086745 -1.2399323 -4.5134664)               (-3.06368 -2.867519 -5.3028779)               (-4.0641917 7.0940761 7.5251417)               (1.6194935 0.29218212 -3.4818298)               (6.5616308 1.4783987 -3.2381211)               (0.59092457 -5.0480151 -3.5602846)
     0.10092749               (-2.594176 -3.1293849 -6.0882809)               (4.0098563 5.8844756 -6.990261)               (2.3633443 11.146799 13.53548)               (-13.748744 15.131578 -5.9110843)               (6.3542839 4.0792865 -5.2956684)               (0.35438271 1.2157902 -5.7837297)               (-6.575137 7.1923845 7.6415233)               (-7.9899967 3.047356 4.1627294)               (3.5536492 2.1402399 -5.0305654)               (0.19229328 -2.9340122 -5.6059908)               (-0.80236973 4.5341757 -0.99917624)               (-5.5009661 -2.5094222 -0.49176391)               (0.43470511 -1.2603377 -4.467502)               (-3.0229929 -2.8833654 -5.3303878)               (-4.1046856 7.114039 7.4314716)               (1.64532 0.29268395 -3.4259872)               (6.9280674 1.796495 -2.6426157)               (0.62813517 -5.0287685 -3.564926)
     0.10093331               (-2.570856 -3.1464248 -5.8773008)               (3.8446182 6.0078422 -6.7840944)               (2.6977199 9.9133512 13.723638)               (-13.823488 15.291361 -5.9140422)               (6.396945 4.097145 -5.2786819)               (0.41503737 1.2611976 -5.7413525)               (-6.6442471 7.1060093 7.7050398)               (-8.1267185 3.0232185 4.0113562)               (3.5765383 2.1339888 -5.0625324)               (0.22174292 -2.958975 -5.5624787)               (-0.77774418 4.5091043 -0.94553433)               (-5.580414 -2.673344 -0.35000832)               (0.49838122 -1.2803815 -4.4244471)               (-2.9892233 -2.9062196 -5.350566)               (-4.1226576 7.1112169 7.3475564)               (1.6688809 0.28988688 -3.3703356)               (7.2880346 2.1247537 -2.0803922)               (0.66284698 -5.0078963 -3.5669241)
      0.1009391               (-2.5674084 -3.1713727 -5.6452868)               (3.7046349 6.147752 -6.5895898)               (3.0516526 8.9352639 13.963164)               (-13.886835 15.465186 -5.852572)               (6.4839251 4.0570728 -5.1822723)               (0.47724296 1.304812 -5.7002301)               (-6.6241702 7.0444577 7.7607418)               (-8.2135004 3.0499533 3.7957553)               (3.6060634 2.124376 -5.0823062)               (0.25092192 -2.9843631 -5.5168711)               (-0.75375904 4.479341 -0.88984622)               (-5.6475394 -2.7603254 -0.21689228)               (0.56101296 -1.3001433 -4.3847934)               (-2.9630274 -2.9331216 -5.3636658)               (-4.1200939 7.0861302 7.2730808)               (1.6901972 0.28385406 -3.3151181)               (7.6481074 2.4363413 -1.5858721)               (0.69498873 -4.9856723 -3.5661802)
     0.10094487               (-2.5849906 -3.1996389 -5.3965072)               (3.5953277 6.2920508 -6.4116208)               (3.3212839 8.2159767 14.198659)               (-13.928601 15.652339 -5.7249205)               (6.6090886 3.9193624 -5.0537694)               (0.54126992 1.3467727 -5.6610841)               (-6.4948079 7.0065925 7.8161563)               (-8.2418454 3.1360057 3.5086059)               (3.6425082 2.1115788 -5.088899)               (0.27969275 -3.0100961 -5.4692065)               (-0.73056674 4.4454728 -0.83238971)               (-5.7028822 -2.7504038 -0.11188813)               (0.6223174 -1.3198485 -4.3489181)               (-2.9445227 -2.9609479 -5.3702105)               (-4.099929 7.0400335 7.2069196)               (1.709294 0.27462187 -3.260286)               (8.0088724 2.7007062 -1.1851036)               (0.72459493 -4.9623159 -3.5626214)
     0.10095062               (-2.6245273 -3.2248926 -5.1353068)               (3.5176714 6.4284495 -6.2550031)               (3.3846268 7.6574442 14.314443)               (-13.936529 15.849298 -5.5338224)               (6.7620587 3.6671829 -4.9516308)               (0.60665058 1.3872351 -5.6233547)               (-6.2515292 7.0002383 7.8730131)               (-8.2083299 3.2787585 3.1507108)               (3.6860423 2.0961332 -5.0815838)               (0.30791518 -3.0360613 -5.4195684)               (-0.70815726 4.4079252 -0.77328798)               (-5.7431267 -2.6396295 -0.050542625)               (0.68196726 -1.3398195 -4.3171622)               (-2.9333622 -2.9866321 -5.3709004)               (-4.0655067 6.9744351 7.1479401)               (1.7260597 0.26228101 -3.2059225)               (8.3694017 2.8855711 -0.8904903)               (0.75170895 -4.9380035 -3.5561953)
     0.10095634               (-2.6868434 -3.2398583 -4.8656473)               (3.4686602 6.5458998 -6.1246033)               (3.2291839 7.1764512 14.21104)               (-13.8956 16.049152 -5.2851435)               (6.928604 3.3173369 -4.9224505)               (0.67321822 1.4263887 -5.5870188)               (-5.9064081 7.0430673 7.9264384)               (-8.1152253 3.4661527 2.7327402)               (3.7364981 2.0785928 -5.0600556)               (0.33546938 -3.0621459 -5.3681036)               (-0.68693332 4.3670934 -0.71269973)               (-5.767715 -2.4419237 -0.042322444)               (0.73991145 -1.3601938 -4.2897097)               (-2.9288217 -3.0073922 -5.3665664)               (-4.020348 6.8910858 7.0949377)               (1.7406799 0.24681417 -3.1519926)               (8.7290259 2.9654649 -0.70322177)               (0.77635364 -4.9129015 -3.5468884)
     0.10096204               (-2.7719107 -3.2369392 -4.5922053)               (3.4423476 6.6358812 -6.0249903)               (2.9852112 6.7790227 13.890152)               (-13.792209 16.24221 -4.9836604)               (7.0930439 2.9172993 -4.9798104)               (0.74094707 1.4644333 -5.5522405)               (-5.4865129 7.1587687 7.9666177)               (-7.9704841 3.6805842 2.2735447)               (3.7936473 2.0597594 -5.024374)               (0.36228305 -3.0882231 -5.3149191)               (-0.66674898 4.3236487 -0.65177149)               (-5.7774296 -2.1847198 -0.086669912)               (0.79631786 -1.3811964 -4.2666925)               (-2.9298328 -3.0209613 -5.3580574)               (-3.9678204 6.7915963 7.0467944)               (1.7530757 0.22824238 -3.0986582)               (9.0833207 2.930699 -0.60236577)               (0.79858242 -4.8871652 -3.5346899)
     0.10096772               (-2.8783117 -3.2089516 -4.3197486)               (3.4312543 6.6934007 -5.9597423)               (2.8182472 6.5140959 13.452679)               (-13.617999 16.415973 -4.6329416)               (7.2412208 2.5241353 -5.0999055)               (0.80961511 1.5012649 -5.5188144)               (-5.0289049 7.368767 7.9822509)               (-7.7836767 3.9016292 1.7966502)               (3.8571261 2.0402576 -4.9750147)               (0.38829206 -3.1141598 -5.2601233)               (-0.64807482 4.2781604 -0.58987145)               (-5.7723632 -1.8994321 -0.17563631)               (0.85158532 -1.4028725 -4.2481123)               (-2.9351089 -3.0257172 -5.3462337)               (-3.9109154 6.677317 7.0026154)               (1.7634856 0.20670372 -3.0457351)               (9.4174642 2.7975726 -0.54547943)               (0.81845309 -4.8609045 -3.5195999)
     0.10097338               (-3.0034361 -3.150156 -4.0545158)               (3.4276689 6.7173408 -5.9306793)               (2.8057051 6.3859331 13.01337)               (-13.375117 16.557598 -4.237154)               (7.3636322 2.1784028 -5.2375456)               (0.87914058 1.5370766 -5.4867952)               (-4.5738354 7.6830837 7.9643564)               (-7.5677051 4.1107115 1.3260709)               (3.9262894 2.020787 -4.913098)               (0.41346894 -3.1398469 -5.2038125)               (-0.63119282 4.2304487 -0.52714874)               (-5.7562078 -1.6135518 -0.29716226)               (0.90636297 -1.4253379 -4.2338779)               (-2.9432959 -3.0207389 -5.3319279)               (-3.8519597 6.5493387 6.9618347)               (1.7717898 0.18231325 -2.9933351)               (9.7221722 2.6094987 -0.48284315)               (0.83602283 -4.8341542 -3.5016252)
     0.10097901               (-3.1430733 -3.057027 -3.8034007)               (3.4248792 6.7101804 -5.9373621)               (2.9211951 6.3388817 12.631998)               (-13.070878 16.655889 -3.8079865)               (7.4567786 1.8889931 -5.3504453)               (0.94944255 1.571961 -5.4560838)               (-4.1577727 8.0937594 7.9097562)               (-7.3344031 4.2949116 0.88484847)               (4.0004307 2.0017867 -4.8399754)               (0.43779328 -3.1651853 -5.1460532)               (-0.61658027 4.1817205 -0.4644741)               (-5.7303717 -1.3459116 -0.43896911)               (0.9614433 -1.4485861 -4.2238135)               (-2.9529968 -3.0058309 -5.3159081)               (-3.7929722 6.4085089 6.9240295)               (1.7781536 0.15500581 -2.9414581)               (9.9879941 2.4271393 -0.364526)               (0.85132654 -4.8069897 -3.4807951)
     0.10098464               (-3.2920546 -2.9294418 -3.5750464)               (3.4179696 6.6771929 -5.9771107)               (3.099226 6.3144172 12.314054)               (-12.71277 16.699322 -3.3712904)               (7.5207068 1.6398298 -5.4177448)               (1.0204125 1.6059196 -5.4265226)               (-3.8076446 8.5732392 7.8227141)               (-7.0942198 4.4442847 0.4891448)               (4.0787149 1.9835643 -4.7573656)               (0.46126355 -3.1900789 -5.0868805)               (-0.60347874 4.1324899 -0.40134967)               (-5.6967709 -1.1049871 -0.59047367)               (1.0178164 -1.4726517 -4.2176936)               (-2.9629453 -2.9814336 -5.2988275)               (-3.7352221 6.255436 6.8888965)               (1.7824792 0.1249397 -2.8899953)               (10.206705 2.3170683 -0.16063935)               (0.86443846 -4.7794466 -3.4571138)
     0.10099024               (-3.4439348 -2.7709047 -3.3781794)               (3.4043418 6.6254354 -6.0455323)               (3.2853395 6.2958359 12.044663)               (-12.305404 16.673854 -2.9494878)               (7.5564242 1.4073462 -5.4445003)               (1.0920929 1.6391082 -5.3979534)               (-3.5375076 9.0783149 7.7151568)               (-6.8540068 4.5549032 0.15150188)               (4.1600885 1.9662272 -4.667301)               (0.48397959 -3.2144335 -5.0263927)               (-0.59180755 4.0817152 -0.33931954)               (-5.6582347 -0.89087211 -0.74528475)               (1.0765451 -1.4974583 -4.2152273)               (-2.9720294 -2.9485727 -5.2812684)               (-3.6796029 6.0905988 6.8563042)               (1.7847578 0.092233148 -2.8388303)               (10.374247 2.3343344 0.14049886)               (0.87539107 -4.7515944 -3.4306045)
     0.10099585               (-3.5908009 -2.5883248 -3.2223827)               (3.3837829 6.562911 -6.1373914)               (3.4408359 6.3037328 11.809331)               (-11.865418 16.57336 -2.5613737)               (7.5640893 1.1772945 -5.4512359)               (1.1644105 1.6715061 -5.3702781)               (-3.3482984 9.5571762 7.6048805)               (-6.6200715 4.6283087 -0.12297464)               (4.2435675 1.9495727 -4.571984)               (0.50600809 -3.2382068 -4.964623)               (-0.58228494 4.0307736 -0.27722488)               (-5.6149095 -0.69898341 -0.89966625)               (1.1387649 -1.5229067 -4.2161457)               (-2.9793586 -2.9087506 -5.2636972)               (-3.6266937 5.9145722 6.8262872)               (1.7850479 0.056965989 -2.7881217)               (10.493531 2.4995003 0.51462129)               (0.88420269 -4.7234758 -3.4012902)
     0.10100144               (-3.7257708 -2.3913514 -3.1149723)               (3.3582533 6.497989 -6.2472426)               (3.5352199 6.3687938 11.598443)               (-11.406738 16.395588 -2.2239401)               (7.5441316 0.94837222 -5.459554)               (1.2373047 1.7032318 -5.3433523)               (-3.2297756 9.9574726 7.5129287)               (-6.3965783 4.6682519 -0.33242306)               (4.3280448 1.9334229 -4.4738327)               (0.52743074 -3.2612815 -4.9017985)               (-0.57478743 3.9797485 -0.21439162)               (-5.5695931 -0.52263888 -1.0534719)               (1.2055626 -1.5488307 -4.2201632)               (-2.9842843 -2.8638122 -5.2464624)               (-3.5767757 5.7280602 6.7991299)               (1.7836206 0.019271998 -2.737699)               (10.570836 2.7942464 0.91798606)               (0.89090262 -4.695117 -3.3691871)
     0.10100704               (-3.8417855 -2.1914366 -3.0609438)               (3.3315337 6.4391406 -6.3694626)               (3.5467885 6.514166 11.40823)               (-10.95482 16.151822 -1.948319)               (7.4938632 0.72952526 -5.479908)               (1.3106753 1.7342266 -5.3170176)               (-3.1636962 10.233624 7.4601121)               (-6.1851593 4.6812904 -0.47839527)               (4.4123808 1.9171339 -4.3752025)               (0.54825645 -3.2835489 -4.8376542)               (-0.56951057 3.9287264 -0.15193385)               (-5.5222525 -0.3553165 -1.2072789)               (1.277925 -1.5750024 -4.2270473)               (-2.9864557 -2.8158195 -5.2298354)               (-3.529958 5.5319391 6.7749785)               (1.7801488 -0.02097436 -2.6873545)               (10.616432 3.1590822 1.2954173)               (0.89548775 -4.6665679 -3.3343374)
     0.10101262               (-3.9339315 -2.0001856 -3.0612523)               (3.3089968 6.3947344 -6.4974964)               (3.4677267 6.7519375 11.24273)               (-10.529404 15.857223 -1.7415194)               (7.4135484 0.53077769 -5.5124539)               (1.384458 1.7645873 -5.2911974)               (-3.1273896 10.352502 7.4638871)               (-5.9854501 4.6766223 -0.56509267)               (4.4953847 1.9002752 -4.2782904)               (0.56865442 -3.3048874 -4.7726841)               (-0.56649453 3.8782661 -0.092508262)               (-5.475717 -0.19283235 -1.3631942)               (1.3566372 -1.6011864 -4.2366192)               (-2.9858238 -2.7669054 -5.2140208)               (-3.4859562 5.3273821 6.7542906)               (1.7746385 -0.063335726 -2.6372177)               (10.639315 3.5123884 1.5965795)               (0.89795131 -4.6378901 -3.2968036)