# Probe 0 (0 0.005 0)
# Probe 1 (-0.01 -0.005 0)
# Probe 2 (0.01 -0.005 0)
# Probe 3 (0 -0.005 0.01)
# Probe 4 (0 -0.005 -0.01)
# Probe 5 (-0.01 0.005 0)
# Probe 6 (0.01 0.005 0)
# Probe 7 (0 0.005 0.01)
# Probe 8 (0 0.005 -0.01)
# Probe 9 (-0.005 0.005 0)
# Probe 10 (0.005 0.005 0)
# Probe 11 (0 0.005 0.005)
# Probe 12 (0 0.005 -0.005)
# Probe 13 (-0.01 0.015 0)
# Probe 14 (0.01 0.015 0)
# Probe 15 (0 0.015 0.01)
# Probe 16 (0 0.015 -0.01)
# Probe 17 (0 0.015 0)
#         Probe               0               1               2               3               4               5               6               7               8               9              10              11              12              13              14              15              16              17
#          Time
    0.016028979       100143.04       100102.93       100178.73       100151.83       100138.28       100140.16       100167.69       100145.69       100159.85       100141.46       100155.33       100124.47       100142.38       100173.49        100155.7       100162.45       100167.89       100163.25
    0.016035266       100143.55       100102.21       100179.11       100152.34       100137.76       100140.56       100167.97       100146.08       100159.44       100141.66       100155.41       100124.69       100142.37       100173.82       100155.95       100162.78       100167.99       100163.43
    0.016041466       100143.91       100101.21       100179.15       100152.43       100136.92        100140.6       100167.84       100146.09       100158.71       100141.52       100155.15       100124.58       100142.15       100173.81       100155.87       100162.73       100167.73       100163.26
    0.016047574       100144.43       100100.32       100179.22        100152.5       100136.16       100140.72        100167.8       100146.12       100158.13       100141.43       100154.95       100124.55       100141.91        100173.8       100155.82       100162.72       100167.53       100163.14
    0.016053644       100145.07        100099.5       100179.37       100152.53       100135.47       100140.85        100167.8       100146.21       100157.59       100141.39       100154.81       100124.59       100141.74       100173.85       100155.82       100162.77       100167.37       100163.06
    0.016059727       100145.76       100098.73       100179.46       100152.54       100134.83       100141.04       100167.84       100146.28       100157.21       100141.38       100154.73       100124.66       100141.73       100173.99       100155.87       100162.88       100167.27       100163.03
     0.01606587       100146.48       100097.99       100179.55       100152.54       100134.23       100141.16        100167.9       100146.45       100157.07       100141.36       100154.72       100124.81       100141.68       100174.16       100155.95       100163.02       100167.19       100163.03
    0.016072102       100147.18       100097.21       100179.49       100152.53       100133.63       100141.11       100167.95       100146.59       100157.07       100141.36        100154.7       100124.92       100141.74       100174.32       100156.03       100163.13       100167.09       100163.02
    0.016078393       100147.93       100096.45       100179.36       100152.61       100133.11       100140.99       100168.07        100146.8       100157.28       100141.41       100154.77       100125.12       100141.83       100174.51       100156.18       100163.32       100167.08       100163.08
    0.016084621       100148.53       100095.63       100179.03       100152.67       100132.55       100140.66       100168.13       100146.93       100157.55       100141.42        100154.8       100125.21       100141.95       100174.68       100156.26       100163.44          100167       100163.07
    0.016090719       100148.95       100094.66       100178.42       100152.69       100131.89       100140.08       100168.08       100146.98       100157.82       100141.32       100154.74       100125.22       100141.97        100174.7       100156.22        100163.4       100166.79       100162.93
    0.016096737        100149.5       100093.84       100177.88       100152.94       100131.42       100139.54       100168.18       100147.26        100158.2       100141.38       100154.84       100125.36       100142.23       100174.94       100156.34       100163.53       100166.74       100162.96
    0.016102624       100149.88       100092.92       100177.13       100153.14       100130.88       100138.97       100168.17       100147.34       100158.28        100141.3       100154.86       100125.47       100142.37       100175.03       100156.35       100163.57        100166.6       100162.88
    0.016108381       100150.23       100092.06       100176.37        100153.4       100130.41       100138.53       100168.21        100147.4       100158.33       100141.28       100154.95       100125.54       100142.65        100175.1        100156.4       100163.64        100166.5       100162.84
    0.016114028       100150.58       100091.26        100175.6       100153.66          100130       100138.21       100168.27       100147.56       100158.22        100141.3       100155.04       100125.65       100142.94        100175.3       100156.48       100163.73       100166.43       100162.83
    0.016119586       100150.89       100090.51       100174.88       100153.88       100129.63       100137.97       100168.34       100147.72       100158.03       100141.29       100155.19        100125.8       100143.29       100175.44       100156.57       100163.82       100166.36       100162.82
    0.016125072       100151.19       100089.84       100174.19          100154        100129.3       100137.69       100168.44       100147.87        100157.8        100141.3       100155.33       100125.93       100143.66       100175.58       100156.66       100163.92        100166.3       100162.82
    0.016130503       100151.46       100089.25       100173.54       100154.04       100129.02       100137.27       100168.53       100148.04        100157.5       100141.33       100155.48       100126.07       100144.05       100175.73       100156.75       100164.03       100166.25       100162.83
    0.016135893       100151.72       100088.73       100172.94       100153.98       100128.77        100136.7       100168.61       100148.21       100157.27       100141.35       100155.63        100126.2        100144.5       100175.86       100156.84       100164.14       100166.21       100162.84
    0.016141255       100151.96       100088.29       100172.36       100153.88       100128.55       100136.06       100168.72       100148.36       100156.85       100141.38       100155.75       100126.28       100144.89       100175.98       100156.92       100164.22       100166.15       100162.83
    0.016146602       100152.17       100087.93       100171.82       100153.79       100128.36       100135.46       100168.83       100148.48       100156.38       100141.38       100155.86       100126.38       100145.29        100176.1       100157.01       100164.31        100166.1       100162.83
    0.016151944       100152.39       100087.68       100171.36       100153.78        100128.2       100135.06       100168.95       100148.65          100156       100141.43       100155.99       100126.53       100145.75       100176.24       100157.11        100164.4       100166.06       100162.83
    0.016157294       100152.57       100087.47       100170.93       100153.77       100128.06       100134.84       100169.04       100148.77       100155.64       100141.45       100156.07       100126.66       100146.12       100176.32       100157.18       100164.49       100166.01       100162.82
    0.016162662       100152.76       100087.39       100170.56       100154.05       100127.96       100134.74       100169.18       100148.91        100155.3       100141.47       100156.14       100126.74       100146.53       100176.39       100157.27       100164.58       100165.96       100162.82
    0.016168058        100152.9       100087.38       100170.24       100154.27       100127.86        100134.6       100169.34       100148.95       100155.14       100141.51       100156.16       100126.84        100146.9       100176.47       100157.34       100164.65       100165.92        100162.8
     0.01617349       100153.04        100087.5       100169.97       100154.57        100127.8       100134.35       100169.34        100149.2       100154.96       100141.51       100156.16       100126.93       100147.27       100176.52       100157.42       100164.72       100165.85       100162.77
     0.01617897       100153.16       100087.75       100169.78       100154.88       100127.77       100133.92        100169.4       100149.31       100154.94       100141.57       100156.15       100126.99       100147.64       100176.59        100157.5       100164.81       100165.81       100162.76
    0.016184506       100153.25       100088.12       100169.65       100155.19       100127.76       100133.29       100169.56       100149.41       100155.03       100141.55       100156.07       100127.06          100148       100176.63       100157.57       100164.87       100165.75       100162.73
     0.01619011       100153.33       100088.65       100169.58       100155.44       100127.79       100132.54       100169.52       100149.46       100155.16       100141.56       100155.98       100127.16       100148.33       100176.66       100157.64       100164.93        100165.7        100162.7
    0.016195794       100153.39       100089.38       100169.59       100155.66       100127.86       100131.73       100169.62       100149.53       100155.24       100141.56       100155.89       100127.21       100148.65       100176.68       100157.71       100165.01       100165.65       100162.68
    0.016201566       100153.42       100090.26       100169.65       100155.83       100127.97          100131        100169.7       100149.54       100155.37        100141.6       100155.74       100127.28       100148.96       100176.68       100157.78       100165.08       100165.59       100162.64
    0.016207439       100153.44        100091.3       100169.77       100155.98       100128.15       100130.37        100169.8       100149.56       100155.58       100141.63       100155.62       100127.29       100149.23        100176.7       100157.85       100165.17       100165.55       100162.61
     0.01621343       100153.44       100092.59        100169.9        100156.1       100128.39       100129.83       100169.89       100149.57       100155.65        100141.6       100155.48       100127.38       100149.56       100176.72       100157.91       100165.25        100165.5       100162.58
    0.016219545       100153.41       100093.94       100170.07        100156.2       100128.69       100129.35       100169.94       100149.56       100155.84       100141.75       100155.34       100127.43        100149.8       100176.72       100157.97       100165.33       100165.45       100162.54
    0.016225809       100153.36       100095.46       100170.28       100156.24       100129.06       100128.86       100169.98       100149.56       100156.02       100141.55       100155.18       100127.52       100150.03       100176.69       100158.02        100165.4       100165.39       100162.49
    0.016232244       100153.39       100097.28       100170.68       100156.32       100129.61       100128.53       100170.13       100149.71       100156.23       100141.65       100155.22       100127.65       100150.37       100176.78       100158.16       100165.58       100165.42       100162.53
    0.016238766       100153.31       100099.11       100171.06       100156.19       100130.11       100128.17       100170.18       100149.75       100156.25       100141.61       100155.03        100127.7       100150.59       100176.71       100158.17       100165.64       100165.36       100162.46
     0.01624536       100153.21       100101.05       100171.63       100155.99       100130.67       100127.75       100170.17       100149.82       100156.17        100141.6       100154.97       100127.74       100150.91       100176.66       100158.18        100165.7       100165.29       100162.39
    0.016252027       100153.14       100103.09       100172.39       100155.72       100131.29       100127.44       100170.23        100149.9       100155.89       100141.59       100154.94       100127.83       100151.18       100176.62        100158.2       100165.82       100165.25       100162.34
    0.016258767       100153.08       100105.22       100173.35       100155.38       100131.91       100127.09       100170.27       100150.06       100155.24       100141.57       100154.96       100127.92       100151.56       100176.58       100158.21       100165.91        100165.2       100162.29
    0.016265581       100153.04       100107.43       100174.54       100155.02       100132.55       100126.71       100170.33       100150.24       100154.66       100141.59       100155.06       100128.06       100151.96       100176.55       100158.26       100166.05        100165.2       100162.27
     0.01627247       100153.01       100109.67       100175.86       100154.65       100133.18       100126.32        100170.4       100150.41       100154.57       100141.65       100155.23       100128.19       100152.43       100176.51       100158.31       100166.19       100165.21       100162.25
    0.016279409       100152.94       100111.86       100177.25       100154.24       100133.75       100125.97       100170.47       100150.57        100154.3       100141.63       100155.42       100128.29       100152.77       100176.47       100158.31       100166.32       100165.19        100162.2
    0.016286377       100152.88       100114.01       100178.67       100153.83       100134.28       100125.78       100170.54       100150.76       100154.68       100141.62       100155.69       100128.43       100153.16       100176.39       100158.32       100166.45       100165.17       100162.16
    0.016293366       100152.81       100116.08       100180.08       100153.45       100134.79       100125.95       100170.59       100150.99        100155.2       100141.61       100155.95       100128.59        100153.5       100176.32       100158.35       100166.61       100165.18       100162.14
     0.01630037       100152.71       100118.05        100181.4       100153.08       100135.26       100126.51        100170.7        100151.2       100155.77       100141.62       100156.26       100128.71       100153.81       100176.25       100158.37       100166.75       100165.19       100162.11
    0.016307388        100152.6        100119.9       100182.58        100152.7       100135.71       100127.41       100170.82       100151.47       100156.19       100141.62       100156.79       100128.84       100154.05       100176.18       100158.38       100166.93       100165.19       100162.08
    0.016314423       100152.44       100121.61       100183.59       100152.36       100136.13       100128.58       100170.92       100151.77       100156.21       100141.66       100157.14       100129.01        100154.3       100176.07       100158.39       100167.09       100165.21       100162.05
    0.016321483       100152.29       100123.24       100184.45       100152.07       100136.58       100130.04       100171.06       100152.11       100155.86       100141.69        100157.6       100129.18        100154.4       100176.01       100158.42       100167.29       100165.25       100162.06
    0.016328468       100152.15        100124.7       100185.11       100151.79          100137       100131.54       100171.25       100152.46       100155.29        100141.8       100158.08       100129.36       100154.52       100175.94       100158.46        100167.5        100165.3       100162.07
    0.016335327       100151.87        100125.9       100185.45       100151.41       100137.29       100133.01       100171.32       100152.65       100154.48       100141.73       100158.51       100129.44       100154.37       100175.79       100158.38       100167.58       100165.25       100161.97
    0.016342106       100151.65       100127.02       100185.64       100151.09       100137.62       100134.46       100171.44       100152.89       100153.93       100141.81       100158.98       100129.58       100154.34       100175.69        100158.4       100167.76       100165.26       100161.95
    0.016348777       100151.47       100128.07       100185.73       100150.83       100137.97       100136.06       100171.65       100153.14       100153.57        100141.9       100159.55       100129.76       100154.27       100175.62       100158.47       100167.96       100165.32       100161.97
    0.016355306       100151.21       100128.92       100185.62        100150.5       100138.22       100137.61       100171.75        100153.2       100153.55       100141.91       100160.05       100129.84       100154.07        100175.5       100158.46        100168.1       100165.32       100161.92
    0.016361743       100150.94       100129.69       100185.46       100150.18       100138.45       100139.04       100171.87       100153.41       100153.76       100141.94       100160.36       100129.95       100153.81       100175.41       100158.48       100168.23       100165.33       100161.89
     0.01636813       100150.73       100130.41       100185.28       100149.91        100138.7       100140.34       100172.02       100153.53       100154.28       100142.05       100160.78       100130.08       100153.67       100175.35       100158.52        100168.4       100165.38        100161.9
      0.0163745        100150.5       100131.09       100185.06       100149.67       100138.94        100141.4       100172.15        100153.7       100154.88       100142.13       100161.15       100130.21       100153.49       100175.28        100158.6       100168.59       100165.45       100161.93
    0.016380883       100150.26       100131.72       100184.74       100149.44       100139.17       100142.35       100172.24       100153.89       100155.41       100142.22       100161.49       100130.33       100153.32        100175.2       100158.67       100168.75        100165.5       100161.94
    0.016387295       100150.12        100132.4       100184.42       100149.32       100139.49       100143.38       100172.39       100154.13        100155.9       100142.41       100161.92       100130.51       100153.36       100175.26       100158.85       100169.02       100165.68       100162.07
    0.016393615        100149.8       100132.86       100183.81       100149.05       100139.61        100144.1       100172.31       100154.41       100156.01       100142.52       100162.08       100130.52        100153.2       100175.13       100158.83       100169.09       100165.65          100162
     0.01639981       100149.47       100133.27       100183.14       100148.79       100139.71       100144.73       100172.15       100154.45       100156.02       100142.55       100162.23       100130.54       100153.13       100174.99       100158.81       100169.16       100165.62       100161.93
    0.016405911        100149.2       100133.69       100182.47       100148.62       100139.87       100145.33       100171.96       100154.61       100156.03       100142.72       100162.37       100130.57       100153.02        100174.9       100158.83       100169.26       100165.63       100161.91
    0.016411944       100148.94       100134.09       100181.78       100148.47       100140.04       100145.88       100171.68        100154.2       100156.09       100142.88       100162.49       100130.57       100153.09       100174.79       100158.87       100169.34       100165.66       100161.89
    0.016417933       100148.71       100134.47       100181.09       100148.36       100140.22       100146.34       100171.39       100154.03       100156.11       100143.09       100162.59       100130.59       100152.99       100174.75       100158.94       100169.47       100165.69        100161.9
    0.016423903        100148.5       100134.84       100180.39       100148.28       100140.43       100146.73       100171.03       100153.45       100156.24       100143.22       100162.72       100130.61        100152.9       100174.68       100159.01       100169.59       100165.75       100161.92
    0.016429872       100148.28       100135.17       100179.66       100148.21       100140.62       100146.99       100170.59        100152.5        100156.4       100143.51       100162.74        100130.6       100152.81       100174.62       100159.08       100169.69       100165.79       100161.93
    0.016435861       100148.07       100135.48       100178.91       100148.16       100140.81       100147.09       100170.16       100151.19       100156.63       100143.73       100162.78       100130.57       100152.65       100174.57       100159.16       100169.79       100165.84       100161.94
    0.016441888       100147.87       100135.75       100178.15       100148.11          100141       100147.07       100169.72       100150.02       100156.86          100144       100162.69       100130.54       100152.49       100174.52       100159.23       100169.88       100165.87       100161.94
    0.016447967       100147.68       100136.01       100177.37       100148.09       100141.19       100146.98       100169.33       100148.84        100157.2       100144.27       100162.72       100130.54       100152.27       100174.46       100159.31       100169.97       100165.91       100161.96
    0.016454035       100147.58       100136.33       100176.66       100148.17       100141.46       100146.95       100169.02       100147.73       100157.59       100144.61       100162.77        100130.6       100152.17       100174.49       100159.48       100170.14       100166.02       100162.04
    0.016459999       100147.33       100136.46        100175.8       100148.11       100141.56       100146.74       100168.66       100146.53       100157.83       100144.83       100162.61        100130.5       100151.88       100174.36       100159.48       100170.17       100165.98       100161.98
    0.016465876       100147.12        100136.6       100174.96        100148.1       100141.69        100146.7       100168.38       100145.62       100158.13       100145.04       100162.49       100130.43       100151.67       100174.28        100159.5       100170.19       100165.96       100161.93
    0.016471682       100146.96       100136.77       100174.17       100148.14       100141.85       100146.73       100168.17       100144.69       100158.44       100145.36       100162.37       100130.42       100151.45       100174.19       100159.58       100170.27       100165.98       100161.93
    0.016477434       100146.82       100136.93       100173.35        100148.2       100141.99       100146.66       100168.01       100143.87       100158.73       100145.67       100162.27       100130.38       100151.28       100174.13       100159.66       100170.35       100166.01       100161.93
    0.016483149        100146.7       100137.09       100172.52       100148.29       100142.13       100146.67       100167.87       100143.07       100159.02       100145.99       100162.19       100130.33       100151.15       100174.11       100159.77       100170.44       100166.05       100161.96
    0.016488846       100146.57       100137.25       100171.65       100148.39       100142.25       100146.71       100167.76       100142.33       100159.32       100146.31       100162.15       100130.34       100151.03       100174.08       100159.85       100170.52       100166.08       100161.97
    0.016494543       100146.46       100137.42       100170.75       100148.51       100142.37       100146.84       100167.71       100141.56       100159.66       100146.67        100162.1       100130.35       100150.97       100174.03       100159.97        100170.6       100166.13          100162
    0.016500256       100146.34       100137.59       100169.79       100148.63       100142.46       100146.97       100167.66       100140.77       100159.87          100147       100162.06       100130.37       100150.89       100173.97       100160.07       100170.68       100166.17       100162.02
    0.016506002       100146.24       100137.77       100168.78       100148.76       100142.53       100147.04       100167.61       100140.02       100160.11       100147.34       100162.08        100130.4       100150.86       100173.93       100160.17       100170.75        100166.2       100162.03
    0.016511798       100146.15       100137.97       100167.72       100148.91       100142.59       100147.01       100167.61       100139.27       100160.31       100147.66       100162.08       100130.43       100150.83       100173.88       100160.28       100170.83       100166.24       100162.06
    0.016517648       100146.12       100138.24       100166.66       100149.11       100142.67        100147.5       100167.63       100138.52       100160.57       100148.07       100162.09       100130.55       100150.92       100173.88       100160.44       100170.96       100166.32       100162.12
    0.016523508       100146.04       100138.46       100165.51       100149.24       100142.67       100147.33       100167.57       100137.75       100160.73       100148.33       100162.07       100130.58       100150.82       100173.77       100160.51       100170.98       100166.31        100162.1
    0.016529336       100146.06       100138.76       100164.43       100149.45       100142.71       100147.61       100167.58       100137.22       100160.94       100148.69        100162.1        100130.7       100150.84       100173.76       100160.67       100171.12       100166.38       100162.17
    0.016535056       100146.01       100138.99       100163.29       100149.56       100142.65       100147.78        100167.5       100136.59       100161.06       100148.94       100162.07       100130.74       100150.81       100173.65       100160.69       100171.13       100166.31       100162.11
    0.016540667       100146.01       100139.25       100162.19       100149.69       100142.59       100147.66        100167.4       100136.12       100161.18       100149.18       100162.04       100130.82       100150.64       100173.53       100160.74       100171.16       100166.28       100162.09
    0.016546169       100146.06       100139.54       100161.16       100149.84       100142.55       100147.71       100167.37       100135.68       100161.35       100149.44       100162.04       100130.93       100150.59       100173.46       100160.82       100171.24       100166.27       100162.08
    0.016551566       100146.16       100139.86       100160.17       100150.01       100142.51       100147.72       100167.41       100134.98       100161.53       100149.69       100162.08       100131.06       100150.57       100173.39       100160.92        100171.3       100166.29       100162.09
    0.016556862       100146.28       100140.17        100159.2       100150.18       100142.44       100147.45       100167.46       100135.05       100161.76       100149.94       100162.13       100131.21       100150.44       100173.32       100161.02       100171.36       100166.29       100162.11
    0.016562068       100146.41       100140.47       100158.25       100150.34       100142.36       100147.33       100167.55       100134.58       100161.95        100150.2       100162.18       100131.37       100150.41       100173.21       100161.11       100171.41        100166.3       100162.12
    0.016567194       100146.56       100140.77       100157.33       100150.52       100142.26       100147.28       100167.71       100134.67       100162.14       100150.43       100162.24       100131.54       100150.31       100173.15       100161.21       100171.48       100166.32       100162.15
    0.016572258       100146.73       100141.06       100156.42       100150.69       100142.14       100147.22       100167.95       100134.43       100162.37       100150.67       100162.32       100131.73        100150.3       100173.07       100161.31       100171.53       100166.33       100162.18
     0.01657728       100146.91       100141.33       100155.54       100150.86       100141.97        100147.3       100168.17       100134.32       100162.57       100150.89       100162.42       100131.94       100150.22       100172.99       100161.42       100171.58       100166.35        100162.2
    0.016582282       100147.13       100141.61       100154.69       100151.05       100141.78        100147.3       100168.46       100134.31        100162.8       100151.11       100162.51       100132.17       100150.03       100172.92       100161.54       100171.65       100166.38       100162.24
    0.016587281       100147.36       100141.87       100153.85       100151.22       100141.54       100146.99       100168.76       100134.25          100163        100151.3       100162.63        100132.4       100149.94       100172.81       100161.65       100171.67        100166.4       100162.27
    0.016592307       100147.61       100142.11       100153.03       100151.39       100141.23       100147.05       100169.06       100134.19       100163.21       100151.48       100162.75       100132.65       100149.81       100172.72       100161.74       100171.69       100166.43       100162.29
    0.016597386       100147.89       100142.36       100152.26       100151.58       100140.89       100147.02       100169.35       100134.43       100163.41       100151.66       100162.87        100132.9       100149.66       100172.61       100161.86       100171.73       100166.45       100162.32