# Probe 0 (0 0.005 0)
# Probe 1 (-0.01 -0.005 0)
# Probe 2 (0.01 -0.005 0)
# Probe 3 (0 -0.005 0.01)
# Probe 4 (0 -0.005 -0.01)
# Probe 5 (-0.01 0.005 0)
# Probe 6 (0.01 0.005 0)
# Probe 7 (0 0.005 0.01)
# Probe 8 (0 0.005 -0.01)
# Probe 9 (-0.005 0.005 0)
# Probe 10 (0.005 0.005 0)
# Probe 11 (0 0.005 0.005)
# Probe 12 (0 0.005 -0.005)
# Probe 13 (-0.01 0.015 0)
# Probe 14 (0.01 0.015 0)
# Probe 15 (0 0.015 0.01)
# Probe 16 (0 0.015 -0.01)
# Probe 17 (0 0.015 0)
#         Probe               0               1               2               3               4               5               6               7               8               9              10              11              12              13              14              15              16              17
#          Time
    0.098245909          100122       100119.14       100130.99       100064.32       100116.54       100133.85       100103.55       100117.99       100146.15       100122.59       100106.99        100095.4       100134.36       100133.88       100116.87       100129.48       100133.88       100127.83
    0.098251076       100122.02       100117.28       100130.87       100063.36        100115.5       100133.89       100103.76       100117.94       100145.98       100122.62       100107.13       100095.25       100134.26       100133.72       100116.87       100129.41       100134.03       100127.84
    0.098256275       100122.03       100115.29       100130.78       100061.54       100114.41       100133.93       100104.02       100117.95        100145.8       100122.61       100107.26       100095.13       100134.14       100133.55       100116.83       100129.28        100134.2       100127.82
    0.098261501       100122.05       100113.22       100130.71       100058.94       100113.22       100134.03       100104.25        100118.1       100145.62       100122.67       100107.39       100095.04       100134.03        100133.4       100116.77        100129.2       100134.38        100127.8
    0.098266749       100122.09       100111.03       100130.68       100056.02       100111.92       100134.19       100104.47       100118.12       100145.42        100122.7       100107.53       100094.98       100133.94       100133.24       100116.74       100129.12       100134.53       100127.79
    0.098272015       100122.13        100108.7       100130.68       100052.93       100110.48       100134.43        100104.7       100118.72       100145.23       100122.75       100107.66       100094.95       100133.83       100133.11       100116.65       100129.05       100134.66       100127.78
    0.098277297       100122.17        100106.2       100130.72       100050.01       100108.92       100134.68       100104.93       100119.42       100145.04       100122.79       100107.79       100094.97       100133.72       100132.97       100116.66        100128.9       100134.81       100127.77
    0.098282593       100122.23       100103.57        100130.8       100047.55       100107.16       100134.99       100105.13       100119.92       100144.85       100122.81       100107.93          100095       100133.62       100132.84       100116.61       100128.82       100134.94       100127.74
    0.098287903        100122.3       100100.77       100130.93       100045.24       100105.22       100135.21       100105.35        100120.5       100144.68       100122.89       100108.06       100095.03       100133.54       100132.72       100116.52       100128.69       100135.06       100127.73
    0.098293228       100122.39       100097.83       100131.12       100042.95       100103.05       100135.51       100105.58       100121.11       100144.52       100122.96       100108.23       100095.09       100133.48       100132.62        100116.5       100128.62        100135.2       100127.73
    0.098298568       100122.48       100094.73       100131.33       100040.37       100100.59        100135.7       100105.78       100121.66       100144.36       100123.05       100108.35       100095.14       100133.39        100132.5       100116.47       100128.55       100135.32       100127.71
    0.098303923       100122.58       100091.49       100131.57       100037.47        100097.9       100135.93       100105.97       100122.05        100144.2       100123.16        100108.5       100095.22       100133.32       100132.38       100116.42        100128.5       100135.43        100127.7
    0.098309292       100122.69       100088.14       100131.83       100035.08       100095.06       100136.03       100106.14       100122.34       100144.04       100123.25       100108.64       100095.35       100133.27       100132.26        100116.4       100128.32       100135.55       100127.69
    0.098314676       100122.82       100084.68       100132.12        100033.2       100091.92        100136.1       100106.34       100122.38        100143.9        100123.4       100108.77       100095.48       100133.21       100132.15       100116.28       100128.23       100135.66       100127.68
    0.098320076       100122.94       100081.12       100132.43       100032.21       100088.99        100136.1       100106.51       100122.26       100143.77       100123.52        100108.9       100095.66       100133.15       100132.05       100116.13       100128.17       100135.77       100127.68
     0.09832549       100123.08       100077.44       100132.74       100032.38        100086.2       100135.97       100106.71       100122.02       100143.66       100123.68       100109.03       100095.83       100133.13       100131.93        100116.1       100128.07       100135.86       100127.66
    0.098330919       100123.24       100073.62       100133.08       100033.42       100083.61       100135.81       100106.91       100121.53       100143.56       100123.88       100109.18       100096.05       100133.09       100131.83       100116.03       100127.96       100135.96       100127.68
    0.098336365       100123.38       100069.67        100133.4       100035.11       100082.47        100135.6       100107.11       100121.31       100143.46       100124.01       100109.31       100096.29       100133.07       100131.72       100115.87        100127.9       100136.08       100127.67
    0.098341827       100123.54       100065.57       100133.72       100037.23       100081.53       100135.43       100107.28       100120.66       100143.41        100124.2       100109.43       100096.51       100133.03       100131.62       100115.71       100127.86       100136.18       100127.68
    0.098347306       100123.71       100061.28       100134.04        100039.5       100081.48       100135.03       100107.48       100120.13       100143.36       100124.37       100109.57       100096.75       100133.02       100131.49       100115.42       100127.81       100136.31       100127.69
    0.098352802       100123.89       100056.82       100134.35       100041.71       100082.18        100134.7        100107.7       100119.87       100143.33       100124.58        100109.7        100097.1       100133.02       100131.42       100115.22       100127.78       100136.47       100127.71
    0.098358315       100124.04       100052.15       100134.62       100043.81        100083.6        100134.4       100107.87       100119.58       100143.29       100124.71       100109.81       100097.34       100133.04       100131.28       100114.96       100127.73       100136.58       100127.71
    0.098363846       100124.21       100047.32       100134.88       100045.64       100085.53       100134.11       100108.04        100119.1       100143.28       100124.89       100109.93       100097.69       100133.05       100131.17       100114.57       100127.74       100136.73       100127.75
    0.098369394       100124.38       100042.24       100135.11       100047.25       100087.59       100133.89       100108.21       100119.05       100143.27       100125.06       100110.05       100098.05       100133.06        100131.1       100114.08        100127.7       100136.88       100127.79
    0.098374957       100124.53       100036.95       100135.31       100048.54       100090.21       100133.63       100108.38       100118.88       100143.25       100125.21       100110.15       100098.41       100133.08       100131.02       100113.67       100127.69       100137.05       100127.82
    0.098380537       100124.67       100031.39       100135.48        100049.6       100092.64       100133.45       100108.51        100118.7       100143.21       100125.37       100110.25       100098.76       100133.11       100130.94        100113.2       100127.68       100137.21       100127.85
    0.098386134       100124.82       100025.55       100135.63       100050.49       100095.03       100133.29       100108.66       100118.55       100143.18       100125.49       100110.35       100099.11       100133.15       100130.86       100112.84       100127.68       100137.39        100127.9
     0.09839175       100124.95       100019.41       100135.76       100051.39       100097.25       100133.17        100108.8       100118.37       100143.16       100125.64       100110.44       100099.34       100133.21       100130.79       100112.34       100127.67       100137.57       100127.95
    0.098397387       100125.06       100013.02       100135.88       100052.18       100099.24       100133.09       100108.94       100118.04       100143.11       100125.88       100110.53       100099.79       100133.26       100130.71        100111.7       100127.65       100137.73       100127.99
    0.098403044       100125.17       100006.33       100135.99       100052.96       100100.97       100132.97       100109.09       100117.73       100143.06       100125.89       100110.61       100100.26       100133.34       100130.64       100111.25       100127.65        100137.9       100128.05
    0.098408721       100125.28       99999.334        100136.1       100053.68       100102.47       100132.85       100109.24       100117.36          100143       100126.06        100110.7       100100.82       100133.41       100130.57        100110.7       100127.63       100138.08        100128.1
     0.09841442       100125.35       99992.184       100136.22       100054.35       100103.79       100132.73       100109.42       100117.06       100142.94       100126.09       100110.77       100101.34       100133.47       100130.47       100110.13       100127.61       100138.25       100128.15
    0.098420142       100125.44       99984.819       100136.35       100054.97       100104.96       100132.61       100109.62       100116.67       100142.86       100126.21       100110.85       100101.94       100133.56        100130.4       100109.54        100127.6       100138.41       100128.21
     0.09842589        100125.5       99977.306       100136.48       100055.53       100106.04       100132.42       100109.82       100116.32       100142.79       100126.27       100110.91       100102.59       100133.62       100130.31       100108.87       100127.56       100138.57       100128.25
    0.098431666       100125.56       99969.661       100136.63       100056.03       100107.03       100132.22       100110.04       100116.02       100142.69       100126.39       100110.97        100103.2        100133.7       100130.22        100108.2       100127.51        100138.7       100128.29
    0.098437471       100125.62       99962.041        100136.8       100056.54       100107.96       100131.96       100110.29       100115.61       100142.61       100126.49       100111.02        100103.9       100133.76       100130.19       100107.65       100127.49       100138.84       100128.33
    0.098443308       100125.68       99954.365       100136.98       100057.12       100108.74       100131.68       100110.54        100115.4       100142.52       100126.55       100111.07       100104.57       100133.83        100130.1       100106.92       100127.43          100139       100128.37
     0.09844918        100125.7       99946.826       100137.19       100057.78       100109.36       100131.34        100110.8       100114.93       100142.43       100126.56       100111.09       100105.13       100133.86       100130.02       100106.31       100127.37       100139.11        100128.4
    0.098455089       100125.74       99939.625       100137.41       100058.54       100109.77       100130.96       100111.08       100115.14       100142.36       100126.61       100111.13       100105.67       100133.87       100129.93       100105.71       100127.29       100139.24       100128.42
    0.098461038       100125.79        99932.86       100137.69       100059.42       100109.97       100130.55       100111.42       100115.08        100142.3       100126.63       100111.17       100106.12       100133.91       100129.92       100105.14       100127.25       100139.37       100128.46
    0.098467031       100125.83       99926.451       100137.97       100060.39       100109.94       100130.05       100111.72       100115.07       100142.23       100126.66       100111.19       100106.45       100133.93       100129.83       100104.83       100127.18       100139.49       100128.48
     0.09847307       100125.85       99920.575       100138.31       100061.45       100109.73       100129.45       100112.07       100115.39       100142.17       100126.67       100111.23       100106.55       100133.92        100129.9       100104.27        100127.1       100139.62        100128.5
    0.098479158       100125.87       99915.556       100138.64       100062.64       100109.38       100128.68       100112.42       100115.45       100142.12       100126.68       100111.26       100106.55       100133.91       100129.84       100103.89       100127.05       100139.76       100128.52
    0.098485217       100125.89       99911.523       100139.01       100063.93       100108.97       100127.74       100112.81       100115.85       100142.12       100126.67       100111.31       100106.39       100133.91       100129.79       100103.33       100127.03        100139.9       100128.55
    0.098491201       100125.83       99908.297       100139.33       100065.17       100108.49       100126.46        100113.1       100116.37       100142.03       100126.52       100111.29       100106.09       100133.82        100129.7       100102.58       100126.96       100139.96        100128.5
     0.09849713       100125.78       99906.057       100139.67       100066.53       100108.04       100124.99       100113.44       100116.78       100141.98       100126.41       100111.29       100105.66       100133.75       100129.66       100101.91       100126.92       100140.07       100128.47
    0.098503026       100125.74       99904.655       100140.05       100067.98       100107.64       100123.25        100113.8       100117.14       100141.98       100126.33       100111.33       100105.31       100133.69       100129.62       100101.39        100126.9       100140.23       100128.46
    0.098508907       100125.68       99904.112       100140.42        100069.4       100107.29        100121.3       100114.15       100117.68       100141.95       100126.14       100111.36          100105       100133.61        100129.6       100100.81       100126.93       100140.37       100128.45
    0.098514793       100125.63       99904.347       100140.79       100070.94       100106.95       100119.23       100114.49        100118.1        100141.9       100125.97        100111.4        100104.8       100133.52       100129.65       100100.16          100127       100140.53       100128.44
    0.098520704       100125.57        99905.23       100141.12       100072.46       100106.68        100117.1       100114.82       100118.51       100141.87       100125.77       100111.44       100104.69       100133.44       100129.61       100099.79        100127.1       100140.71       100128.44
    0.098526655       100125.52       99906.681       100141.46       100073.95       100106.43        100114.9       100115.15       100118.92        100141.8       100125.57       100111.49       100104.63       100133.33       100129.66       100099.42       100127.22        100140.9       100128.43
    0.098532622       100125.49       99908.687       100141.72       100075.54        100106.3       100112.65        100115.5       100119.27       100141.76       100125.31       100111.58       100104.76       100133.25        100129.7          100099       100127.42       100141.12       100128.44
    0.098538523       100125.41       99910.971       100141.97       100076.93       100106.18       100110.17       100115.76       100119.43       100141.61       100125.01       100111.59       100104.79        100133.1        100129.7       100098.65       100127.56       100141.29       100128.39
    0.098544347       100125.32       99913.546       100142.14       100078.27       100106.14       100107.45       100115.99        100119.5       100141.44       100124.59       100111.62       100104.93       100132.93       100129.65       100098.43       100127.75       100141.46       100128.33
    0.098550113       100125.25         99916.4       100142.34       100079.54       100106.24       100104.58       100116.23       100119.54       100141.21       100124.21       100111.65       100105.07       100132.76        100129.7       100098.15       100127.93       100141.59       100128.27
    0.098555842        100125.2       99919.559       100142.63       100080.72       100106.48       100101.73       100116.46       100119.47       100140.97       100123.77       100111.71       100105.17       100132.61       100129.75       100097.94       100128.17       100141.86       100128.23
    0.098561553       100125.17        99922.97       100142.95       100081.89       100106.84       100099.09       100116.69       100119.31       100140.72       100123.31       100111.79       100105.26       100132.46       100129.81       100097.83       100128.41       100142.09       100128.19
    0.098567262       100125.13       99926.669       100143.22       100083.06       100107.31       100096.83       100116.92       100118.85       100140.42       100122.82       100111.87       100105.28       100132.32       100129.89       100097.86       100128.66       100142.33       100128.15
    0.098572983        100125.1       99930.646       100143.52       100084.17       100107.88       100095.05       100117.15       100118.41       100140.08       100122.41       100111.97        100105.3       100132.14       100129.99        100097.8       100128.89       100142.59       100128.11
    0.098578729       100125.07       99934.904       100143.83       100085.26       100108.51       100093.69       100117.37        100118.1       100139.76       100121.92       100112.06       100105.33       100131.99       100130.09        100098.1       100129.12       100142.79       100128.06
    0.098584505       100125.06       99939.473       100144.19       100086.34       100109.19       100092.76       100117.62       100117.65       100139.45       100121.56       100112.19        100105.3       100131.84       100130.27       100098.21       100129.39       100143.01       100128.03
    0.098590282       100125.02       99944.287       100144.52       100087.37       100109.86       100091.92       100117.81       100117.25       100139.15       100121.11       100112.27        100105.2       100131.64       100130.39       100098.42       100129.59       100143.25       100127.95
    0.098596058       100124.98        99949.42        100144.9       100088.35       100110.54       100091.16       100118.02        100116.9       100138.82       100120.74       100112.37       100105.03       100131.43       100130.51       100098.58        100129.7        100143.4       100127.86
    0.098601841       100124.97       99954.806       100145.26       100089.31       100111.21       100090.31       100118.24       100116.68       100138.56       100120.28        100112.5          100105       100131.27       100130.69       100098.78       100129.84       100143.58        100127.8
    0.098607637       100124.96       99960.608       100145.66       100090.29       100111.86       100089.47       100118.46       100116.57       100138.32       100120.08       100112.64       100104.94       100131.07       100130.87       100098.94       100129.93       100143.75       100127.72
    0.098613453       100124.96       99966.803       100146.01       100091.24       100112.47       100088.64       100118.69       100116.59       100138.12       100119.71       100112.77       100104.84       100130.88       100131.04       100099.07       100129.98       100143.89       100127.64
    0.098619297       100124.98        99973.41       100146.34       100092.19       100113.04       100087.78       100118.92       100116.77       100137.95       100119.36       100112.91       100104.78        100130.7        100131.3       100099.15       100130.01       100144.04       100127.57
    0.098625175       100125.01       99980.371       100146.62       100093.13       100113.56       100086.89       100119.16       100117.09       100137.78        100119.1       100113.05        100104.8        100130.5       100131.49       100099.35          100130       100144.18       100127.49
    0.098631094       100125.06       99988.019       100146.82       100094.04       100114.03       100085.97       100119.43       100117.45       100137.63       100118.84       100113.21       100104.87       100130.32       100131.75       100099.38       100129.94       100144.31       100127.41
    0.098637061       100125.14       99995.922       100146.94       100094.95       100114.44       100084.95       100119.72       100117.85       100137.56       100118.64       100113.37       100104.91       100130.15       100132.02        100099.5       100129.89       100144.41       100127.34
    0.098643081       100125.24       100004.13       100146.99        100095.8        100114.8       100083.76       100120.02       100118.22        100137.5       100118.34       100113.57       100105.04       100129.99       100132.32       100099.55        100129.8       100144.55       100127.28
    0.098649159       100125.37       100012.44       100146.95        100096.6        100115.1       100082.38       100120.32       100118.51        100137.5       100118.39       100113.74       100105.26       100129.83       100132.61       100099.61       100129.67       100144.68       100127.21
    0.098655301       100125.49       100020.72       100146.81       100097.28       100115.32       100080.83       100120.65       100118.72       100137.54       100118.27       100113.92       100105.41       100129.67       100132.93       100099.54       100129.43        100144.8       100127.15
    0.098661508       100125.63       100028.97       100146.59       100097.89        100115.5       100079.14       100120.97       100118.86       100137.61       100118.24        100114.1       100105.63       100129.51       100133.26       100099.56       100129.26       100144.91       100127.09
    0.098667784       100125.78          100037       100146.31       100098.41       100115.67       100077.27       100121.32       100118.98       100137.72       100118.23        100114.3       100105.76       100129.36       100133.62       100099.54       100129.11       100145.06       100127.05
    0.098674091       100125.93       100044.61       100145.99       100098.79       100115.73       100075.37       100121.65       100118.98        100137.8       100118.21       100114.48       100105.96        100129.2          100134       100099.49       100128.87        100145.2          100127
    0.098680411       100126.03       100051.52       100145.61       100099.01       100115.71       100073.61       100121.97       100118.97       100137.93       100118.19       100114.63       100106.06          100129       100134.33       100099.47       100128.56       100145.32       100126.93
    0.098686749       100126.17       100057.91        100145.3       100099.12       100115.69       100072.02       100122.29       100118.91       100138.04       100118.21       100114.79        100106.2       100128.84        100134.7        100099.4       100128.36       100145.48       100126.89
    0.098693109       100126.29       100062.56       100145.03       100099.13       100115.62       100070.92       100122.62       100118.85       100138.11       100118.27       100114.97       100106.33       100128.69       100135.09       100099.41       100128.13       100145.64       100126.85
    0.098699498        100126.4       100067.09        100144.8       100099.04       100115.51       100070.42       100122.95       100118.81       100138.15       100118.29       100115.12       100106.42       100128.52       100135.47       100099.38        100127.9       100145.81       100126.83
     0.09870592       100126.52       100071.17       100144.72        100098.9       100115.37        100070.6       100123.31       100118.82       100138.09       100118.37        100115.3        100106.5       100128.39       100135.92       100099.52       100127.73       100146.02       100126.83
    0.098712374       100126.64       100074.87       100144.77       100098.71       100115.21       100071.43       100123.68       100118.84       100138.06       100118.46        100115.5       100106.64       100128.25       100136.31       100099.52       100127.51       100146.24       100126.82
    0.098718823       100126.73       100078.26       100144.99       100098.44       100114.99       100073.05       100123.98       100118.84       100137.85       100118.55       100115.65       100106.68       100128.08        100136.7       100099.57       100127.31       100146.43       100126.84
    0.098725269       100126.78       100081.64       100145.35       100098.15       100114.73       100075.19       100124.26       100118.79       100137.65        100118.6        100115.8       100106.68       100127.92       100137.06        100099.7       100127.09       100146.63       100126.78
     0.09873172       100126.87       100084.88       100145.88       100097.91       100114.46       100077.77       100124.61       100118.73       100137.53       100118.66       100115.99       100106.72       100127.78       100137.45       100099.76       100126.91       100146.87       100126.79
    0.098738182       100126.94       100087.97       100146.55       100097.67       100114.12       100080.58       100124.93       100118.63       100137.39       100118.71       100116.17       100106.71       100127.65       100137.83       100099.82       100126.75       100147.09       100126.81
    0.098744664          100127       100090.86       100147.36       100097.44       100113.75       100083.42       100125.22       100118.48       100137.26       100118.76       100116.34       100106.74        100127.5        100138.2       100099.99       100126.61       100147.31       100126.82
     0.09875117       100127.08       100093.63       100148.28       100097.24       100113.36       100086.29       100125.55        100118.3       100137.07       100118.79       100116.54       100106.77       100127.39       100138.56       100100.09       100126.46       100147.56       100126.86
    0.098757688       100127.16       100096.19       100149.25        100097.1       100112.94       100088.96       100125.88       100118.09       100136.99       100118.87       100116.76       100106.83       100127.28       100138.93       100100.38       100126.33        100147.8       100126.92
    0.098764169       100127.19       100098.47       100150.15       100096.96       100112.42       100091.45       100126.14       100117.79       100136.88       100118.88       100116.91       100106.84       100127.14       100139.22       100100.56        100126.2       100147.98       100126.94
    0.098770624       100127.21       100100.56       100151.05       100096.86       100111.92       100093.84       100126.37       100117.49       100136.84       100118.86       100117.06       100106.82       100126.98        100139.5       100100.78       100126.06       100148.18       100126.95
    0.098777062       100127.23       100102.46       100151.94       100096.73        100111.4          100096       100126.63       100117.19       100136.67       100118.83       100117.24       100106.83       100126.86       100139.78       100101.11       100125.97       100148.38          100127
    0.098783486       100127.26       100104.21       100152.82       100096.66       100110.87       100097.95       100126.88       100116.86       100136.54       100118.83       100117.41       100106.84       100126.74       100140.05       100101.34       100125.89       100148.58       100127.06
    0.098789895       100127.27       100105.81       100153.65       100096.59       100110.36       100099.27       100127.12       100116.55       100136.52       100118.81       100117.59       100106.83       100126.61       100140.28       100101.63       100125.87       100148.78       100127.13
     0.09879629       100127.27       100107.22       100154.44       100096.51       100109.85       100100.55       100127.36       100116.21       100136.17       100118.76       100117.76       100106.81       100126.49       100140.48       100101.97       100125.82       100148.99       100127.18
    0.098802671       100127.28        100108.4       100155.18       100096.42       100109.36       100101.62        100127.6       100115.87       100135.99       100118.73       100117.95        100106.8       100126.42       100140.68       100102.34       100125.78       100149.16       100127.27