# Probe 0 (0 0.005 0)
# Probe 1 (-0.01 -0.005 0)
# Probe 2 (0.01 -0.005 0)
# Probe 3 (0 -0.005 0.01)
# Probe 4 (0 -0.005 -0.01)
# Probe 5 (-0.01 0.005 0)
# Probe 6 (0.01 0.005 0)
# Probe 7 (0 0.005 0.01)
# Probe 8 (0 0.005 -0.01)
# Probe 9 (-0.005 0.005 0)
# Probe 10 (0.005 0.005 0)
# Probe 11 (0 0.005 0.005)
# Probe 12 (0 0.005 -0.005)
# Probe 13 (-0.01 0.015 0)
# Probe 14 (0.01 0.015 0)
# Probe 15 (0 0.015 0.01)
# Probe 16 (0 0.015 -0.01)
# Probe 17 (0 0.015 0)
#         Probe               0               1               2               3               4               5               6               7               8               9              10              11              12              13              14              15              16              17
#          Time
     0.15853848       100150.12       100148.26       100162.57        100144.3       100141.72       100161.39       100141.01       100145.45       100160.48        100156.4       100143.65       100158.72       100150.79       100158.36       100166.93       100188.65       100159.81       100157.08
      0.1585456       100150.15       100147.69       100162.93       100144.58          100142       100161.45       100140.96       100145.69        100160.6       100156.55       100143.63       100158.74       100150.73       100158.34       100166.28       100188.66       100160.37       100157.03
