# Probe 0 (0 0.005 0)
# Probe 1 (-0.01 -0.005 0)
# Probe 2 (0.01 -0.005 0)
# Probe 3 (0 -0.005 0.01)
# Probe 4 (0 -0.005 -0.01)
# Probe 5 (-0.01 0.005 0)
# Probe 6 (0.01 0.005 0)
# Probe 7 (0 0.005 0.01)
# Probe 8 (0 0.005 -0.01)
# Probe 9 (-0.005 0.005 0)
# Probe 10 (0.005 0.005 0)
# Probe 11 (0 0.005 0.005)
# Probe 12 (0 0.005 -0.005)
# Probe 13 (-0.01 0.015 0)
# Probe 14 (0.01 0.015 0)
# Probe 15 (0 0.015 0.01)
# Probe 16 (0 0.015 -0.01)
# Probe 17 (0 0.015 0)
#         Probe               0               1               2               3               4               5               6               7               8               9              10              11              12              13              14              15              16              17
#          Time
     0.15853848               (0.48110206 -2.01232 -0.82947937)               (4.5746006 7.4531133 0.35884431)               (1.7367531 5.9969373 0.62893207)               (3.2820716 6.5156167 2.3730034)               (-1.6736244 1.6473378 -1.3334901)               (-1.0813916 2.8448875 -3.1797221)               (-1.6056951 7.4894484 5.3054168)               (1.0200798 8.7397744 1.0883886)               (1.4135133 2.5621898 -0.26350015)               (1.8700238 0.58971962 -3.9055342)               (-2.4632043 1.5017017 1.549463)               (-0.57958629 -3.4257879 -1.5305048)               (5.3383334 -0.91585428 -1.9556356)               (-2.5273981 2.0451044 -2.2234966)               (-2.3764123 1.2572967 9.1447673)               (-4.3117411 4.5309285 -1.9269964)               (11.141913 4.4474598 -4.0643589)               (-3.0328019 -4.8217204 -0.029220507)
      0.1585456               (0.45868445 -2.0485927 -0.87114972)               (4.2660807 7.4928806 0.38009053)               (1.7016729 6.0788483 0.66829226)               (3.1740057 6.6925197 2.2327009)               (-1.6960355 1.6636246 -1.4218752)               (-1.0168058 2.894063 -3.1737917)               (-1.4657318 7.3850533 5.2839468)               (0.9610882 9.1727364 1.0724369)               (1.4448933 2.5445381 -0.18541676)               (1.8723239 0.66240645 -3.8709672)               (-2.388261 1.5689092 1.5939676)               (-0.57649086 -3.4361712 -1.5280756)               (5.3981796 -0.91530611 -1.8885182)               (-2.4605452 2.1587795 -2.2601011)               (-2.7780326 1.3291761 8.779367)               (-4.324243 4.4922289 -1.9656156)               (11.023012 4.6172678 -3.6587593)               (-3.0101709 -4.8542512 -0.026444533)
