# Probe 0 (0 0.005 0)
# Probe 1 (-0.01 -0.005 0)
# Probe 2 (0.01 -0.005 0)
# Probe 3 (0 -0.005 0.01)
# Probe 4 (0 -0.005 -0.01)
# Probe 5 (-0.01 0.005 0)
# Probe 6 (0.01 0.005 0)
# Probe 7 (0 0.005 0.01)
# Probe 8 (0 0.005 -0.01)
# Probe 9 (-0.005 0.005 0)
# Probe 10 (0.005 0.005 0)
# Probe 11 (0 0.005 0.005)
# Probe 12 (0 0.005 -0.005)
# Probe 13 (-0.01 0.015 0)
# Probe 14 (0.01 0.015 0)
# Probe 15 (0 0.015 0.01)
# Probe 16 (0 0.015 -0.01)
# Probe 17 (0 0.015 0)
#         Probe               0               1               2               3               4               5               6               7               8               9              10              11              12              13              14              15              16              17
#          Time
    0.088171286       100151.37       100159.89       100144.33       100174.24       100151.04       100147.25       100175.16       100124.14       100106.89       100156.35       100157.74       100151.68       100142.29       100157.35        100127.2       100146.23       100165.99        100164.9
     0.08817802       100151.35       100159.65       100144.89        100174.5       100151.16       100145.93       100175.06       100123.77       100108.18       100156.25       100157.73       100151.48       100142.16       100158.25       100126.37       100145.93       100166.07       100164.86
    0.088184745       100151.36       100159.43       100145.44       100174.75        100151.3       100144.69       100174.92       100123.47        100109.4       100156.18       100157.73       100151.34       100142.07       100159.22        100125.7       100145.76       100166.16       100164.86
    0.088191491       100151.36        100159.2       100145.97       100174.96       100151.43       100143.52       100174.78       100123.13        100110.5       100156.09       100157.74       100151.17       100141.97       100160.14        100125.2       100145.71        100166.2       100164.84
    0.088198288       100151.38       100158.97        100146.5       100175.14       100151.55       100142.42       100174.61       100122.85       100111.96       100156.01       100157.73       100151.03       100141.88          100161       100124.89       100145.79       100166.28       100164.83
    0.088205165       100151.43       100158.76       100147.03        100175.3       100151.68       100141.36       100174.38       100122.53       100113.18       100155.95       100157.75        100150.9        100141.9       100161.98       100124.84       100145.97       100166.41       100164.83
    0.088212151       100151.47       100158.54       100147.54       100175.42        100151.8       100140.29       100174.13       100122.24       100114.37       100155.87       100157.77        100150.8       100141.81       100162.97          100125       100146.27       100166.53       100164.84
    0.088219275       100151.57       100158.35       100148.09       100175.55       100151.94       100139.23       100173.88       100122.01       100115.52       100155.84       100157.83       100150.71        100141.8       100163.99       100125.39       100146.63        100166.7       100164.88
    0.088226383       100151.68       100158.19       100148.64       100175.65        100152.1       100138.14       100173.61       100121.77       100116.76       100155.81        100157.9       100150.68       100141.84       100164.95       100125.96          100147       100166.86       100164.93
    0.088233378       100151.65        100157.9       100149.05       100175.57        100152.1       100136.83       100173.19       100121.42       100117.72       100155.66       100157.84       100150.48       100141.71       100165.78       100126.45       100147.22       100166.85       100164.83
    0.088240293       100151.66       100157.66       100149.48        100175.5       100152.15       100135.47       100172.74       100121.21       100118.76       100155.54       100157.81       100150.35       100141.65        100166.5       100127.09       100147.45       100166.86       100164.77
    0.088247162       100151.71       100157.46       100149.93       100175.43       100152.22       100134.02       100172.29       100121.05       100119.61       100155.48       100157.84       100150.28       100141.63       100167.26        100127.8       100147.69       100166.92       100164.76
    0.088254016       100151.76       100157.28       100150.37       100175.33       100152.29       100132.44       100171.78       100120.87       100120.88        100155.4       100157.85       100150.19       100141.64        100167.9       100128.55       100147.89       100166.93       100164.74
    0.088260889       100151.81        100157.1       100150.81       100175.19       100152.34       100130.71       100171.23       100120.79       100121.81       100155.35       100157.87       100150.11       100141.64        100168.5       100129.42       100148.04       100166.91       100164.74
    0.088267806       100151.86       100156.94       100151.24       100175.03       100152.41       100128.86       100170.65       100120.72       100122.83        100155.3        100157.9       100150.05       100141.66        100168.9       100130.56       100148.14       100166.91       100164.74
    0.088274789       100151.91       100156.77       100151.65       100174.82       100152.46       100126.85       100170.05        100120.7       100123.93       100155.25       100157.93       100149.99        100141.7       100169.28       100132.15        100148.2       100166.83       100164.74
    0.088281865       100151.93       100156.59       100152.03       100174.55       100152.49       100124.66       100169.41       100120.67       100125.07       100155.18       100157.93        100149.9       100141.71       100169.65       100134.01       100148.16       100166.67       100164.73
     0.08828907       100151.95       100156.41        100152.4       100174.22       100152.51       100122.29       100168.78       100120.77       100126.23       100155.11       100157.94        100149.8       100141.74       100169.83       100135.71        100148.1       100166.46       100164.73
    0.088296447       100151.96       100156.21       100152.73       100173.84       100152.51       100119.78        100168.1       100120.89       100127.35       100155.03       100157.94        100149.7       100141.76       100169.95       100137.36       100148.01       100166.17       100164.71
    0.088304019        100152.1       100156.15       100153.21       100173.55       100152.66       100117.28       100167.58       100121.28        100128.6        100155.1       100158.08       100149.75       100141.93       100170.26       100139.27       100148.04       100165.99       100164.85
    0.088311648       100152.02       100155.89       100153.44          100173       100152.58       100114.54        100166.9       100121.45       100129.56       100154.95          100158       100149.56       100141.91       100170.28       100140.89       100147.86       100165.44       100164.75
     0.08831934       100151.94       100155.64       100153.65       100172.41       100152.49       100111.94       100166.21       100121.72       100130.45       100154.81       100157.93       100149.39        100141.9        100170.1       100142.64       100147.65       100164.93       100164.67
    0.088327145       100152.01       100155.56       100153.99       100171.93       100152.56       100109.57       100165.77        100122.2       100131.54       100154.84       100158.01       100149.38       100142.05       100170.07       100144.38       100147.66       100164.54       100164.75
    0.088334953       100151.94       100155.34       100154.16       100171.27       100152.48       100107.43       100165.16       100122.67       100132.45       100154.72       100157.96       100149.22       100142.09       100169.87       100145.92       100147.55       100163.89        100164.7
    0.088342747       100151.91       100155.18       100154.35        100170.6       100152.44       100105.63       100164.61       100123.19        100133.3       100154.64       100157.94       100149.12       100142.15       100169.62       100147.39       100147.48       100163.24       100164.68
    0.088350533       100151.88       100155.03       100154.52       100169.91       100152.39       100104.26       100164.28        100123.8       100134.14       100154.57       100157.93       100149.02       100142.23       100169.24       100148.78       100147.48       100162.54       100164.69
    0.088358317       100151.85       100154.91       100154.68       100169.18       100152.36       100103.28       100163.99        100124.5       100134.82       100154.51       100157.91       100148.95       100142.29       100168.89       100150.02       100147.49       100161.74       100164.67
    0.088366106       100151.86       100154.83       100154.86       100168.46       100152.36       100103.11       100163.73       100125.26       100135.51       100154.49       100157.94       100148.89       100142.41       100168.58       100151.17       100147.63       100161.05       100164.72
    0.088373905       100151.85       100154.76       100155.02       100167.67       100152.34       100103.05       100163.58       100126.06       100136.04       100154.45       100157.94       100148.84       100142.53       100168.22        100152.1       100147.79       100160.21       100164.75
    0.088381723       100151.83        100154.7       100155.18       100166.85       100152.32       100102.98       100163.42       100126.87       100136.48        100154.4       100157.95        100148.8       100142.63       100167.82       100152.79       100147.94       100159.34       100164.78
     0.08838956       100151.84       100154.69       100155.36       100166.01       100152.33       100105.18       100163.44        100127.8       100136.97        100154.4       100157.97       100148.76       100142.78       100167.45       100153.37       100148.18       100158.34       100164.86
    0.088397397       100151.82       100154.66       100155.53        100165.1       100152.31        100106.5       100163.29       100128.69       100137.36       100154.35       100157.97       100148.69       100142.92       100167.03        100153.7       100148.36       100157.35        100164.9
    0.088405205       100151.81       100154.66       100155.72       100164.16       100152.29       100108.03       100163.26       100129.64       100137.66       100154.33       100157.97       100148.67       100143.05       100166.61        100153.8       100148.59       100156.17       100164.95
    0.088412995       100151.76       100154.66       100155.91       100163.17       100152.26       100110.08       100163.24       100130.58       100137.96       100154.27       100157.93       100148.61       100143.16       100166.22       100153.77       100148.74       100154.93       100164.97
    0.088420809       100151.73        100154.7       100156.15       100162.17       100152.25       100112.19       100163.39       100131.57       100138.21       100154.23       100157.92       100148.59       100143.29       100165.81       100153.62       100149.11       100153.59       100165.02
    0.088428617       100151.81       100154.88       100156.53       100161.24       100152.36       100114.72        100163.6       100132.65       100138.55        100154.3          100158       100148.65       100143.54       100165.51       100153.38       100149.42       100152.27       100165.17
    0.088436336       100151.77       100154.96       100156.81       100160.17       100152.37          100117       100163.75       100133.69       100138.74       100154.25       100157.97       100148.62       100143.67       100165.22       100153.02       100149.68        100150.7       100165.21
    0.088443975       100151.76       100155.09       100157.14       100159.14       100152.42       100119.61       100163.93       100134.76       100138.99       100154.22       100157.96       100148.62       100143.84       100165.01       100152.63        100150.3       100149.12       100165.26
    0.088451539       100151.78       100155.27        100157.5       100158.11       100152.51       100121.95       100164.15       100135.86       100139.22       100154.22       100157.99       100148.65       100144.04       100164.76       100152.34       100150.61        100147.5       100165.34
    0.088459034       100151.77       100155.45       100157.84       100157.08       100152.59       100124.23       100164.38       100136.95       100139.47        100154.2       100157.99       100148.67       100144.22       100164.82       100152.09        100150.9        100145.8        100165.4
    0.088466466       100151.78       100155.66       100158.19       100156.04       100152.69       100126.39       100164.56       100138.07       100139.77        100154.2          100158       100148.73       100144.41       100164.76       100151.88       100151.14       100144.08       100165.46
    0.088473841       100151.78       100155.88       100158.51          100155       100152.79       100128.48       100164.75       100139.19       100140.11       100154.18       100158.01       100148.79       100144.59       100164.76       100151.79       100151.37       100142.36       100165.51
    0.088481162       100151.79       100156.13       100158.82       100153.99       100152.91       100130.49       100165.06       100140.28       100140.55       100154.18       100158.02       100148.85       100144.81       100164.89       100151.89       100151.55       100140.68       100165.59
    0.088488433       100151.79       100156.39       100159.11       100152.99       100153.04       100132.38        100165.2       100141.31       100141.02       100154.18       100158.02       100148.93       100145.02       100165.07       100152.06       100151.72       100139.07       100165.66
     0.08849566       100151.79       100156.67       100159.38          100152       100153.18       100134.27        100165.3       100142.29       100141.54       100154.17       100158.03          100149       100145.22       100165.21       100152.36       100151.82       100137.56        100165.7
    0.088502847       100151.78       100156.95       100159.61       100151.04       100153.32       100136.09       100165.41       100143.22       100142.11       100154.16       100158.02       100149.06       100145.39       100165.37       100152.74       100152.01       100136.11       100165.74
    0.088509999       100151.78       100157.26       100159.81       100150.11       100153.49       100137.82       100165.45        100144.1       100142.75       100154.16       100158.01       100149.16       100145.58       100165.58       100153.15       100152.15       100134.74       100165.76
    0.088517121       100151.78       100157.59          100160       100149.21       100153.67       100139.42        100165.5       100144.98       100143.49       100154.17       100158.02       100149.21       100145.82       100165.77       100153.69       100152.28       100133.55       100165.79
    0.088524217       100151.77       100157.91       100160.15       100148.36       100153.84       100140.92       100165.46       100145.75       100144.22       100154.16       100158.01       100149.31          100146       100165.95       100154.41       100152.48       100132.46        100165.8
    0.088531294       100151.75       100158.24       100160.26       100147.52       100154.03       100142.33        100165.4       100146.49       100144.99       100154.14       100157.98       100149.34       100146.18       100166.09       100155.06       100152.52       100131.54       100165.79
    0.088538358       100151.77        100158.6       100160.39       100146.78       100154.25       100143.64       100165.38       100147.22       100145.85       100154.16       100157.99       100149.43       100146.38       100166.22       100156.08       100152.76       100130.85       100165.81
    0.088545414       100151.76       100158.95       100160.47       100146.04       100154.46       100144.83       100165.29       100147.89       100146.66       100154.16       100157.98       100149.48       100146.56       100166.31       100156.74       100152.91       100130.35       100165.79
    0.088552472       100151.76       100159.31       100160.54       100145.39       100154.69       100145.91       100165.19       100148.52        100147.5       100154.17       100157.97       100149.57       100146.76       100166.37       100157.48       100153.08       100130.05       100165.76
    0.088559539       100151.76       100159.68       100160.59       100144.76       100154.92       100146.89       100165.04       100149.12       100148.33       100154.17       100157.97       100149.64       100146.94       100166.38       100158.11       100153.24       100130.03       100165.73
    0.088566624       100151.75       100160.03       100160.62       100144.21       100155.15       100147.82       100164.86       100149.65        100149.1       100154.16       100157.95       100149.67       100147.12       100166.41       100158.67       100153.46       100130.05       100165.68
    0.088573736       100151.76       100160.41       100160.65       100143.71       100155.41       100148.66       100164.64       100150.17       100149.85       100154.17       100157.95       100149.75        100147.3       100166.41       100159.17       100153.67       100130.23       100165.63
    0.088580885       100151.78        100160.8       100160.67       100143.29       100155.68       100149.42       100164.44        100150.7       100150.53       100154.19       100157.95       100149.83       100147.49       100166.44       100159.57       100153.91       100130.43       100165.59
     0.08858808        100151.8        100161.2       100160.67       100142.94       100155.97       100150.11       100164.21       100151.21       100151.16        100154.2       100157.95       100149.92       100147.68       100166.41        100159.9       100154.17       100130.65       100165.53
    0.088595332       100151.81        100161.6       100160.66       100142.67       100156.26       100150.71       100163.96       100151.71       100151.79       100154.22       100157.94       100149.99       100147.85       100166.37       100160.15       100154.45        100130.8       100165.45
     0.08860265       100151.82       100162.01       100160.64       100142.47       100156.56        100151.2       100163.68       100152.21        100152.4       100154.21       100157.92       100150.05       100148.01       100166.32       100160.28       100154.73       100130.79       100165.36
    0.088610042       100151.86       100162.45       100160.63       100142.37       100156.89       100151.69       100163.44       100152.73       100153.04       100154.25       100157.93       100150.14       100148.21       100166.25       100160.42       100155.04       100130.73       100165.28
    0.088617517       100151.89       100162.88       100160.59       100142.34       100157.23       100152.12       100163.17       100153.23       100153.68       100154.29       100157.92       100150.23        100148.4       100166.18       100160.48       100155.34       100130.42       100165.15
    0.088625043       100152.03       100163.41       100160.65       100142.51       100157.67       100152.75       100163.01       100153.87       100154.38        100154.4       100158.02       100150.42       100148.68       100166.21        100160.6        100155.8       100130.15       100165.15
    0.088632494       100151.98       100163.76       100160.55        100142.6       100157.96       100153.17       100162.72       100154.29        100154.9       100154.33       100157.94       100150.44       100148.78       100166.05       100160.51       100155.99       100129.56       100164.95
    0.088639867       100151.99       100164.15       100160.48       100142.81       100158.29       100153.69       100162.48       100154.76       100155.43       100154.37        100157.9       100150.49       100148.89       100165.94       100160.44        100156.3        100128.9       100164.78
    0.088647175       100152.03       100164.55       100160.44       100143.13       100158.65       100154.24       100162.27       100155.24       100155.97       100154.36        100157.9       100150.57       100149.06       100165.86       100160.41       100156.64       100128.18       100164.65
    0.088654428       100152.07       100164.93        100160.4       100143.51          100159       100154.76       100162.08       100155.69       100156.44       100154.35       100157.89       100150.65       100149.21        100165.8       100160.34       100157.01       100127.42        100164.5
    0.088661639       100152.13       100165.32       100160.38       100143.98       100159.36       100155.36       100161.94       100156.11        100156.9       100154.45       100157.91       100150.75       100149.37       100165.75       100160.31       100157.38       100126.58       100164.35
    0.088668817       100152.18        100165.7       100160.36       100144.51       100159.74       100155.94       100161.81       100156.53        100157.3       100154.52       100157.92       100150.85       100149.52       100165.67       100160.24       100157.77       100125.75       100164.19
    0.088675973       100152.25       100166.07       100160.35        100145.1       100160.12       100156.56        100161.7       100156.93       100157.66       100154.59       100157.92       100150.96       100149.68        100165.6        100160.2       100158.21       100124.82       100164.03
    0.088683116       100152.32       100166.44       100160.35       100145.75        100160.5       100157.15       100161.63       100157.28       100157.96       100154.62       100157.95       100151.07       100149.84       100165.53       100160.13       100158.66       100123.87       100163.88
    0.088690234       100152.44       100166.85        100160.4       100146.49       100160.93       100157.87       100161.63       100157.71        100158.3       100154.74          100158       100151.23       100150.02        100165.5       100160.12       100159.21       100123.04       100163.75
    0.088697263       100152.47       100167.17        100160.4       100147.18       100161.29       100158.46       100161.56       100158.02       100158.51       100154.79       100157.99       100151.31       100150.13       100165.32          100160       100159.66        100122.1       100163.54
    0.088704212       100152.52       100167.48       100160.41       100147.92       100161.66       100159.05       100161.51       100158.38       100158.65       100154.83       100157.99       100151.41       100150.23        100165.1       100159.92       100160.15       100121.15       100163.33
    0.088711085       100152.58       100167.79       100160.45       100148.68       100162.04       100159.66       100161.49       100158.69       100158.78       100154.89       100157.99       100151.51       100150.35       100164.98        100159.8       100160.72       100120.34       100163.13
    0.088717892       100152.64       100168.09       100160.52       100149.47       100162.42       100160.27       100161.49       100159.02       100158.86       100154.94          100158       100151.62       100150.47       100164.71        100159.7       100161.25       100119.47       100162.93
    0.088724642       100152.72       100168.38        100160.6       100150.27       100162.82       100160.84       100161.53       100159.34       100158.95       100155.01       100158.03       100151.74        100150.6       100164.54        100159.6       100161.77       100118.72       100162.74
    0.088731344       100152.78       100168.64       100160.69       100151.03       100163.19       100161.42       100161.59        100159.6       100158.98       100155.08       100158.04       100151.84       100150.72       100164.31       100159.51       100162.29       100117.97       100162.53
    0.088738005       100152.85       100168.89        100160.8       100151.88       100163.58       100161.96       100161.66       100159.85       100158.97       100155.15       100158.05       100151.94       100150.84       100164.06       100159.43        100162.8       100117.39       100162.34
    0.088744631       100152.91       100169.11       100160.93        100152.7       100163.96       100162.53       100161.75       100160.11       100158.94       100155.22       100158.06       100152.04       100150.94       100163.78       100159.32       100163.24       100116.74       100162.12
    0.088751224       100152.97       100169.32       100161.08       100153.52       100164.34       100163.04       100161.85       100160.32       100158.89       100155.28       100158.08       100152.14       100151.05       100163.42       100159.27        100163.7       100116.01        100161.9
    0.088757788       100153.05       100169.53       100161.26       100154.34       100164.74       100163.57       100161.98       100160.53       100158.85       100155.36        100158.1       100152.26       100151.17       100163.14       100159.23       100164.08       100115.35        100161.7
    0.088764322        100153.1       100169.71       100161.43       100155.14       100165.12        100164.1       100162.09       100160.74       100158.78       100155.43        100158.1       100152.35       100151.25       100162.79        100159.2       100164.43       100114.73       100161.48
    0.088770828       100153.16       100169.87       100161.63       100155.93        100165.5       100164.58       100162.24       100160.91       100158.69       100155.48       100158.12       100152.44       100151.35        100162.4       100159.16       100164.75       100114.12       100161.26
    0.088777303       100153.21       100170.01       100161.84       100156.73       100165.88       100165.09       100162.39       100161.14       100158.59       100155.55       100158.13       100152.54       100151.43       100162.01       100159.15       100165.09        100113.5       100161.05
    0.088783747       100153.28       100170.13       100162.07       100157.52       100166.28       100165.57       100162.55        100161.3       100158.48       100155.63       100158.15       100152.63       100151.53       100161.71       100159.13       100165.38       100112.85       100160.83
    0.088790158       100153.31       100170.22       100162.31       100158.29       100166.64       100166.01        100162.7       100161.47       100158.38       100155.67       100158.15       100152.71       100151.58       100161.24       100159.06       100165.66        100112.3       100160.59
    0.088796534       100153.36        100170.3       100162.56       100159.08       100167.01       100166.42       100162.91       100161.62       100158.28       100155.73       100158.15       100152.79       100151.66       100160.97       100158.99       100165.88       100111.72       100160.37
    0.088802875       100153.43       100170.38       100162.86       100159.87        100167.4       100166.89       100163.09       100161.79       100158.19       100155.81       100158.18       100152.89       100151.74       100160.52        100158.9        100166.1       100111.18       100160.16
    0.088809179       100153.48       100170.43       100163.16       100160.66       100167.77       100167.31       100163.22       100161.95        100158.1       100155.88        100158.2       100152.99       100151.82       100160.14       100158.76       100166.28       100110.56       100159.94
    0.088815447       100153.54       100170.48       100163.48       100161.47       100168.16       100167.75       100163.42       100162.14       100158.04       100155.96       100158.22       100153.09       100151.89        100160.1       100158.54       100166.38        100110.1       100159.74
    0.088821681       100153.59       100170.51       100163.81       100162.29       100168.53       100168.15       100163.63       100162.31       100157.96       100156.03       100158.25       100153.19       100151.96       100159.81       100158.29       100166.41       100109.46       100159.52
    0.088827886       100153.65       100170.53       100164.16       100163.11       100168.89       100168.53       100163.82       100162.48       100157.93        100156.1       100158.28       100153.29       100152.03       100159.57          100158       100166.39       100108.81       100159.32
    0.088834066       100153.71       100170.55       100164.53       100163.95       100169.26       100168.91       100164.03       100162.64       100157.92       100156.19       100158.31       100153.41        100152.1       100159.36       100157.66        100166.3       100108.14       100159.12
     0.08884023       100153.76       100170.54        100164.9       100164.78       100169.62       100169.22       100164.24       100162.81        100157.9       100156.26       100158.33        100153.5       100152.16       100159.15       100157.25       100166.14       100107.47       100158.92
    0.088846388        100153.8       100170.52       100165.29       100165.62       100169.98       100169.53       100164.44       100162.96       100157.89       100156.34       100158.35        100153.6       100152.22       100158.95       100156.78       100165.97       100106.64       100158.73